Siesta Version  : 4.1.5
Architecture    : unknown
Compiler version: GNU Fortran (GCC) 9.4.0
Compiler flags  : mpifort -march=nocona -mtune=haswell -ftree-vectorize -fPIC -fstack-protectorr-strong -fno-plt -O2 -ffunction-sections -pipe
PP flags        : -DFC_HAVE_ABORT -DCDF -DMPI -DSIESTA__MRRR -DNCDF -DNCDF_4
Libraries       : libncdf.a libfdict.a -lscalapack -llapack -lblas -lnetcdff -lnetcdf -lhdf5_hll -lhdf5 -lz
PARALLEL version
NetCDF support
NetCDF-4 support

* Running in serial mode with MPI
>> Start of run:  17-JUN-2023  23:20:49

                           ***********************       
                           *  WELCOME TO SIESTA  *       
                           ***********************       

reinit: Reading from standard input
reinit: Dumped input in INPUT_TMP.00625
************************** Dump of input data file ****************************
SystemName NH2-CH2-CN+H2O reaction         # Descriptive name of the system
SystemLabel            NH2-CH2-CN          # Short name for naming files
# Species and atoms
NumberOfSpecies       4
NumberOfAtoms         10
%block ChemicalSpeciesLabel
  1   6   C
  2   1   H
  3   7   N
  4   8   O
%endblock ChemicalSpeciesLabel
# Basis
%block PAO.BasisSizes
    C DZP
    N DZP
    O DZP
    H SZP
%endblock PAO.BasisSizes
LatticeConstant       1.0000 Ang
%block LatticeVectors
15.00000   0.000000  0.000000
 0.00000  15.000000  0.000000
 0.00000   0.000000 15.000000
%endblock LatticeVectors
%block kgrid_Monkhorst_Pack
   1  0  0  0.
   0  1  0  0.
   0  0  1  0.
%endblock Kgrid_Monkhorst_Pack
xc.functional         GGA           # Exchange-correlation functional
xc.authors            PBE           # Exchange-correlation version
#SpinPolarized         true          # Logical parameters are: yes or no
MeshCutoff           200. Ry        # Mesh cutoff. real space mesh
# SCF options
#SCFMustConvergence     true
MaxSCFIterations       150          # Maximum number of SCF iter
DM.MixingWeight       0.02          # New DM amount for next SCF cycle
DM.Tolerance          3.d-4         # Tolerance in maximum difference
                                    # between input and output DM
DM.NumberPulay          6           # to use continuation files
#DM.NumberBroyden       3
#DM.AllowExtrapolation  false
MD.UseSaveData           true
Diag.DivideAndConquer 	true
SolutionMethod        diagon        # OrderN or Diagon
ElectronicTemperature  25 meV       # Temp. for Fermi smearing
# -----------------------------
#  MD options
#  options for a basic MD run
# -----------------------------
# Options to Integrate Equations of motion
MD.TypeOfRun         verlet         # Standard Verlet algrithm
                                    # for Molecular Dynamics
MD.LengthTimeStep         0.5 fs    # time step integration
                                    # Newton eqs of motion
MD.Initial.Time.Step     1          #initial time step of MD
MD.FinalTimeStep         50         #Final time step of MD
# Initial Atomic coordinates and Velocity for MD run
MD.InitialTemperature     0 K       #Assign initial random velocity from
                                    # a Maxwell-Boltzmann distribution
                                    # for a given temperature
MD.UseSaveXV 		true            # use atomic Positions
                                    # and Velocities from
                                    # a saved XV file
AtomicCoordinatesFormat Ang         #Use Angstroms for atomic coordinates
%block AtomicCoordinatesAndAtomicSpecies
            0.0000    0.0000    0.0000 1 ! C 1
            0.0000    1.4100    0.0000 2 ! H 2
            0.0000   -1.4100    0.0000 2 ! H 3
            3.0000    0.0000    0.0000 3 ! N 4
            3.0000    1.0890    0.0000 2 ! H 5
            3.0000   -1.0890    0.0000 2 ! H 6
           -3.0000    0.0000    0.0000 1 ! C 7
           -4.0000   -1.0000    0.0000 4 ! O 8
           -4.0950   -1.0000    0.0000 2 ! H 9
           -3.0000    1.0000    0.0000 4 ! O 10
%endblock AtomicCoordinatesAndAtomicSpecies
#MD Output
WriteCoorXmol          true         #Save the final coordinates in .xyz format
WriteMDXmol            true         #Writes the coordinates
                                    #of all atoms at all steps
                                    #in a .ANI file
                                    #in xyz format
WriteMDhistory         true         #writes .MDE and .MD files
                                    # with output data from MD simulation
                                    # MDE contains: Temp, energy, volume, pressure
                                    # (human readable)
                                    # MD contains coords vel lattice vectors
                                    # (unformatted; post-process with iomd.f)
************************** End of input data file *****************************

reinit: -----------------------------------------------------------------------
reinit: System Name: NH2-CH2-CN+H2O reaction
reinit: -----------------------------------------------------------------------
reinit: System Label: NH2-CH2-CN
reinit: -----------------------------------------------------------------------

initatom: Reading input for the pseudopotentials and atomic orbitals ----------
Species number:   1 Atomic number:    6 Label: C
Species number:   2 Atomic number:    1 Label: H
Species number:   3 Atomic number:    7 Label: N
Species number:   4 Atomic number:    8 Label: O

Ground state valence configuration:   2s02  2p02
Reading pseudopotential information in formatted form from C.psf

Valence configuration for pseudopotential generation:
2s( 2.00) rc: 1.54
2p( 2.00) rc: 1.54
3d( 0.00) rc: 1.54
4f( 0.00) rc: 1.54
Ground state valence configuration:   1s01
Reading pseudopotential information in formatted form from H.psf

Valence configuration for pseudopotential generation:
1s( 1.00) rc: 1.31
2p( 0.00) rc: 1.31
3d( 0.00) rc: 0.37
4f( 0.00) rc: 1.31
Ground state valence configuration:   2s02  2p03
Reading pseudopotential information in formatted form from N.psf

Valence configuration for pseudopotential generation:
2s( 2.00) rc: 1.48
2p( 3.00) rc: 1.48
3d( 0.00) rc: 1.48
4f( 0.00) rc: 1.48
Ground state valence configuration:   2s02  2p04
Reading pseudopotential information in formatted form from O.psf

Valence configuration for pseudopotential generation:
2s( 2.00) rc: 1.47
2p( 4.00) rc: 1.47
3d( 0.00) rc: 1.47
4f( 0.00) rc: 1.47
resizes: Read basis size for species C = dzp                 
resizes: Read basis size for species N = dzp                 
resizes: Read basis size for species O = dzp                 
resizes: Read basis size for species H = szp                 
For C, standard SIESTA heuristics set lmxkb to 3
 (one more than the basis l, including polarization orbitals).
Use PS.lmax or PS.KBprojectors blocks to override.
For H, standard SIESTA heuristics set lmxkb to 2
 (one more than the basis l, including polarization orbitals).
Use PS.lmax or PS.KBprojectors blocks to override.
For N, standard SIESTA heuristics set lmxkb to 3
 (one more than the basis l, including polarization orbitals).
Use PS.lmax or PS.KBprojectors blocks to override.
For O, standard SIESTA heuristics set lmxkb to 3
 (one more than the basis l, including polarization orbitals).
Use PS.lmax or PS.KBprojectors blocks to override.

<basis_specs>
===============================================================================
C                    Z=   6    Mass=  12.010        Charge= 0.17977+309
Lmxo=1 Lmxkb= 3    BasisType=split      Semic=F
L=0  Nsemic=0  Cnfigmx=2
          i=1  nzeta=2  polorb=0  (2s)
            splnorm:   0.15000    
               vcte:    0.0000    
               rinn:    0.0000    
               qcoe:    0.0000    
               qyuk:    0.0000    
               qwid:   0.10000E-01
                rcs:    0.0000      0.0000    
            lambdas:    1.0000      1.0000    
L=1  Nsemic=0  Cnfigmx=2
          i=1  nzeta=2  polorb=1  (2p)
            splnorm:   0.15000    
               vcte:    0.0000    
               rinn:    0.0000    
               qcoe:    0.0000    
               qyuk:    0.0000    
               qwid:   0.10000E-01
                rcs:    0.0000      0.0000    
            lambdas:    1.0000      1.0000    
-------------------------------------------------------------------------------
L=0  Nkbl=1  erefs: 0.17977+309
L=1  Nkbl=1  erefs: 0.17977+309
L=2  Nkbl=1  erefs: 0.17977+309
L=3  Nkbl=1  erefs: 0.17977+309
===============================================================================
</basis_specs>

atom: Called for C                     (Z =   6)

read_vps: Pseudopotential generation method:
read_vps: ATM3      Troullier-Martins                       
Valence charge for ps generation:    4.00000

read_vps: Pseudopotential includes a core correction:
read_vps: Pseudo-core for xc-correction

xc_check: Exchange-correlation functional:
xc_check: GGA Perdew, Burke & Ernzerhof 1996
V l=0 = -2*Zval/r beyond r=  1.5227
V l=1 = -2*Zval/r beyond r=  1.5227
V l=2 = -2*Zval/r beyond r=  1.5227
V l=3 = -2*Zval/r beyond r=  1.5038
All V_l potentials equal beyond r=  1.5227
This should be close to max(r_c) in ps generation
All pots = -2*Zval/r beyond r=  1.5227

VLOCAL1: 99.0% of the norm of Vloc inside     18.722 Ry
VLOCAL1: 99.9% of the norm of Vloc inside     42.668 Ry
atom: Maximum radius for 4*pi*r*r*local-pseudopot. charge    1.83678
atom: Maximum radius for r*vlocal+2*Zval:    1.58088
GHOST: No ghost state for L =  0
GHOST: No ghost state for L =  1
GHOST: No ghost state for L =  2
GHOST: No ghost state for L =  3

KBgen: Kleinman-Bylander projectors: 
   l= 0   rc=  1.704034   el= -1.009801   Ekb=  5.335044   kbcos=  0.316824
   l= 1   rc=  1.704034   el= -0.388707   Ekb= -3.785862   kbcos= -0.366464
   l= 2   rc=  1.791422   el=  0.001971   Ekb= -0.970471   kbcos= -0.009212
   l= 3   rc=  1.859892   el=  0.003065   Ekb= -0.399525   kbcos= -0.001223

KBgen: Total number of Kleinman-Bylander projectors:   16
atom: -------------------------------------------------------------------------

atom: SANKEY-TYPE ORBITALS:
atom: Selected multiple-zeta basis: split     

SPLIT: Orbitals with angular momentum L= 0

SPLIT: Basis orbitals for state 2s

SPLIT: PAO cut-off radius determined from an
SPLIT: energy shift=  0.020000 Ry

   izeta = 1
                 lambda =    1.000000
                     rc =    4.088342
                 energy =   -0.989105
                kinetic =    0.904439
    potential(screened) =   -1.893544
       potential(ionic) =   -5.484581

   izeta = 2
                 rmatch =    3.347176
              splitnorm =    0.150000
                 energy =   -0.835603
                kinetic =    1.364067
    potential(screened) =   -2.199670
       potential(ionic) =   -6.017020

SPLIT: Orbitals with angular momentum L= 1

SPLIT: Basis orbitals for state 2p

SPLIT: PAO cut-off radius determined from an
SPLIT: energy shift=  0.020000 Ry

   izeta = 1
                 lambda =    1.000000
                     rc =    4.870301
                 energy =   -0.368906
                kinetic =    2.520369
    potential(screened) =   -2.889275
       potential(ionic) =   -6.370528

   izeta = 2
                 rmatch =    3.475094
              splitnorm =    0.150000
                 energy =   -0.205913
                kinetic =    3.767535
    potential(screened) =   -3.973448
       potential(ionic) =   -7.809680

POLgen: Perturbative polarization orbital with L=  2

POLgen: Polarization orbital for state 2p

   izeta = 1
                     rc =    4.870301
                 energy =    1.296434
                kinetic =    2.645086
    potential(screened) =   -1.348652
       potential(ionic) =   -4.303965
atom: Total number of Sankey-type orbitals: 13

atm_pop: Valence configuration (for local Pseudopot. screening):
 2s( 2.00)                                                            
 2p( 2.00)                                                            
Vna: chval, zval:    4.00000   4.00000

Vna:  Cut-off radius for the neutral-atom potential:   4.870301
comcore: Pseudo-core radius Rcore=  1.791422

atom: _________________________________________________________________________

<basis_specs>
===============================================================================
H                    Z=   1    Mass=  1.0100        Charge= 0.17977+309
Lmxo=0 Lmxkb= 2    BasisType=split      Semic=F
L=0  Nsemic=0  Cnfigmx=1
          i=1  nzeta=1  polorb=1  (1s)
            splnorm:   0.15000    
               vcte:    0.0000    
               rinn:    0.0000    
               qcoe:    0.0000    
               qyuk:    0.0000    
               qwid:   0.10000E-01
                rcs:    0.0000    
            lambdas:    1.0000    
-------------------------------------------------------------------------------
L=0  Nkbl=1  erefs: 0.17977+309
L=1  Nkbl=1  erefs: 0.17977+309
L=2  Nkbl=1  erefs: 0.17977+309
===============================================================================
</basis_specs>

atom: Called for H                     (Z =   1)

read_vps: Pseudopotential generation method:
read_vps: ATM3      Troullier-Martins                       
Valence charge for ps generation:    1.00000

xc_check: Exchange-correlation functional:
xc_check: GGA Perdew, Burke & Ernzerhof 1996
V l=0 = -2*Zval/r beyond r=  1.2977
V l=1 = -2*Zval/r beyond r=  1.2815
V l=2 = -2*Zval/r beyond r=  1.2656
All V_l potentials equal beyond r=  1.2977
This should be close to max(r_c) in ps generation
All pots = -2*Zval/r beyond r=  1.2977

VLOCAL1: 99.0% of the norm of Vloc inside     25.776 Ry
VLOCAL1: 99.9% of the norm of Vloc inside     58.745 Ry
atom: Maximum radius for 4*pi*r*r*local-pseudopot. charge    1.52711
atom: Maximum radius for r*vlocal+2*Zval:    1.28155
GHOST: No ghost state for L =  0
GHOST: No ghost state for L =  1
GHOST: No ghost state for L =  2

KBgen: Kleinman-Bylander projectors: 
   l= 0   rc=  1.434438   el= -0.477200   Ekb= -1.957043   kbcos= -0.361614
   l= 1   rc=  1.508111   el=  0.001076   Ekb= -0.424224   kbcos= -0.025441
   l= 2   rc=  1.527112   el=  0.002010   Ekb= -0.378578   kbcos= -0.002010

KBgen: Total number of Kleinman-Bylander projectors:    9
atom: -------------------------------------------------------------------------

atom: SANKEY-TYPE ORBITALS:

SPLIT: Orbitals with angular momentum L= 0

SPLIT: Basis orbitals for state 1s

SPLIT: PAO cut-off radius determined from an
SPLIT: energy shift=  0.020000 Ry

   izeta = 1
                 lambda =    1.000000
                     rc =    4.708991
                 energy =   -0.457754
                kinetic =    0.977134
    potential(screened) =   -1.434888
       potential(ionic) =   -1.963073

POLgen: Perturbative polarization orbital with L=  1

POLgen: Polarization orbital for state 1s

   izeta = 1
                     rc =    4.708991
                 energy =    0.764959
                kinetic =    1.478379
    potential(screened) =   -0.713420
       potential(ionic) =   -1.205754
atom: Total number of Sankey-type orbitals:  4

atm_pop: Valence configuration (for local Pseudopot. screening):
 1s( 1.00)                                                            
Vna: chval, zval:    1.00000   1.00000

Vna:  Cut-off radius for the neutral-atom potential:   4.708991

atom: _________________________________________________________________________

<basis_specs>
===============================================================================
N                    Z=   7    Mass=  14.010        Charge= 0.17977+309
Lmxo=1 Lmxkb= 3    BasisType=split      Semic=F
L=0  Nsemic=0  Cnfigmx=2
          i=1  nzeta=2  polorb=0  (2s)
            splnorm:   0.15000    
               vcte:    0.0000    
               rinn:    0.0000    
               qcoe:    0.0000    
               qyuk:    0.0000    
               qwid:   0.10000E-01
                rcs:    0.0000      0.0000    
            lambdas:    1.0000      1.0000    
L=1  Nsemic=0  Cnfigmx=2
          i=1  nzeta=2  polorb=1  (2p)
            splnorm:   0.15000    
               vcte:    0.0000    
               rinn:    0.0000    
               qcoe:    0.0000    
               qyuk:    0.0000    
               qwid:   0.10000E-01
                rcs:    0.0000      0.0000    
            lambdas:    1.0000      1.0000    
-------------------------------------------------------------------------------
L=0  Nkbl=1  erefs: 0.17977+309
L=1  Nkbl=1  erefs: 0.17977+309
L=2  Nkbl=1  erefs: 0.17977+309
L=3  Nkbl=1  erefs: 0.17977+309
===============================================================================
</basis_specs>

atom: Called for N                     (Z =   7)

read_vps: Pseudopotential generation method:
read_vps: ATM3      Troullier-Martins                       
Valence charge for ps generation:    5.00000

read_vps: Pseudopotential includes a core correction:
read_vps: Pseudo-core for xc-correction

xc_check: Exchange-correlation functional:
xc_check: GGA Perdew, Burke & Ernzerhof 1996
V l=0 = -2*Zval/r beyond r=  1.4606
V l=1 = -2*Zval/r beyond r=  1.4606
V l=2 = -2*Zval/r beyond r=  1.4606
V l=3 = -2*Zval/r beyond r=  1.4606
All V_l potentials equal beyond r=  1.4606
This should be close to max(r_c) in ps generation
All pots = -2*Zval/r beyond r=  1.4606

VLOCAL1: 99.0% of the norm of Vloc inside     20.347 Ry
VLOCAL1: 99.9% of the norm of Vloc inside     46.372 Ry
atom: Maximum radius for 4*pi*r*r*local-pseudopot. charge    1.76189
atom: Maximum radius for r*vlocal+2*Zval:    1.53550
GHOST: No ghost state for L =  0
GHOST: No ghost state for L =  1
GHOST: No ghost state for L =  2
GHOST: No ghost state for L =  3

KBgen: Kleinman-Bylander projectors: 
   l= 0   rc=  1.634559   el= -1.363963   Ekb=  5.296955   kbcos=  0.335621
   l= 1   rc=  1.614250   el= -0.521451   Ekb= -5.259161   kbcos= -0.433408
   l= 2   rc=  1.718383   el=  0.001991   Ekb= -1.271464   kbcos= -0.007566
   l= 3   rc=  1.761893   el=  0.003093   Ekb= -0.494769   kbcos= -0.001015

KBgen: Total number of Kleinman-Bylander projectors:   16
atom: -------------------------------------------------------------------------

atom: SANKEY-TYPE ORBITALS:
atom: Selected multiple-zeta basis: split     

SPLIT: Orbitals with angular momentum L= 0

SPLIT: Basis orbitals for state 2s

SPLIT: PAO cut-off radius determined from an
SPLIT: energy shift=  0.020000 Ry

   izeta = 1
                 lambda =    1.000000
                     rc =    3.683980
                 energy =   -1.346493
                kinetic =    1.217702
    potential(screened) =   -2.564196
       potential(ionic) =   -8.121417

   izeta = 2
                 rmatch =    2.869008
              splitnorm =    0.150000
                 energy =   -1.143688
                kinetic =    1.842239
    potential(screened) =   -2.985927
       potential(ionic) =   -8.929748

SPLIT: Orbitals with angular momentum L= 1

SPLIT: Basis orbitals for state 2p

SPLIT: PAO cut-off radius determined from an
SPLIT: energy shift=  0.020000 Ry

   izeta = 1
                 lambda =    1.000000
                     rc =    4.280232
                 energy =   -0.501066
                kinetic =    3.581781
    potential(screened) =   -4.082847
       potential(ionic) =   -9.491389

   izeta = 2
                 rmatch =    2.905100
              splitnorm =    0.150000
                 energy =   -0.269325
                kinetic =    5.375034
    potential(screened) =   -5.644358
       potential(ionic) =  -11.640447

POLgen: Perturbative polarization orbital with L=  2

POLgen: Polarization orbital for state 2p

   izeta = 1
                     rc =    4.280232
                 energy =    1.846098
                kinetic =    3.706851
    potential(screened) =   -1.860753
       potential(ionic) =   -6.377604
atom: Total number of Sankey-type orbitals: 13

atm_pop: Valence configuration (for local Pseudopot. screening):
 2s( 2.00)                                                            
 2p( 3.00)                                                            
Vna: chval, zval:    5.00000   5.00000

Vna:  Cut-off radius for the neutral-atom potential:   4.280232
comcore: Pseudo-core radius Rcore=  1.554824

atom: _________________________________________________________________________

<basis_specs>
===============================================================================
O                    Z=   8    Mass=  16.000        Charge= 0.17977+309
Lmxo=1 Lmxkb= 3    BasisType=split      Semic=F
L=0  Nsemic=0  Cnfigmx=2
          i=1  nzeta=2  polorb=0  (2s)
            splnorm:   0.15000    
               vcte:    0.0000    
               rinn:    0.0000    
               qcoe:    0.0000    
               qyuk:    0.0000    
               qwid:   0.10000E-01
                rcs:    0.0000      0.0000    
            lambdas:    1.0000      1.0000    
L=1  Nsemic=0  Cnfigmx=2
          i=1  nzeta=2  polorb=1  (2p)
            splnorm:   0.15000    
               vcte:    0.0000    
               rinn:    0.0000    
               qcoe:    0.0000    
               qyuk:    0.0000    
               qwid:   0.10000E-01
                rcs:    0.0000      0.0000    
            lambdas:    1.0000      1.0000    
-------------------------------------------------------------------------------
L=0  Nkbl=1  erefs: 0.17977+309
L=1  Nkbl=1  erefs: 0.17977+309
L=2  Nkbl=1  erefs: 0.17977+309
L=3  Nkbl=1  erefs: 0.17977+309
===============================================================================
</basis_specs>

atom: Called for O                     (Z =   8)

read_vps: Pseudopotential generation method:
read_vps: ATM3      Troullier-Martins                       
Valence charge for ps generation:    6.00000

read_vps: Pseudopotential includes a core correction:
read_vps: Pseudo-core for xc-correction

xc_check: Exchange-correlation functional:
xc_check: GGA Perdew, Burke & Ernzerhof 1996
V l=0 = -2*Zval/r beyond r=  1.4482
V l=1 = -2*Zval/r beyond r=  1.4482
V l=2 = -2*Zval/r beyond r=  1.4482
V l=3 = -2*Zval/r beyond r=  1.4482
All V_l potentials equal beyond r=  1.4482
This should be close to max(r_c) in ps generation
All pots = -2*Zval/r beyond r=  1.4482

VLOCAL1: 99.0% of the norm of Vloc inside     20.696 Ry
VLOCAL1: 99.9% of the norm of Vloc inside     47.167 Ry
atom: Maximum radius for 4*pi*r*r*local-pseudopot. charge    1.74697
atom: Maximum radius for r*vlocal+2*Zval:    1.52250
GHOST: No ghost state for L =  0
GHOST: No ghost state for L =  1
GHOST: No ghost state for L =  2
GHOST: No ghost state for L =  3

KBgen: Kleinman-Bylander projectors: 
   l= 0   rc=  1.620715   el= -1.757696   Ekb=  4.880948   kbcos=  0.293490
   l= 1   rc=  1.600578   el= -0.664256   Ekb= -6.909822   kbcos= -0.499892
   l= 2   rc=  1.703827   el=  0.002031   Ekb= -1.539219   kbcos= -0.006778
   l= 3   rc=  1.746967   el=  0.003153   Ekb= -0.568983   kbcos= -0.000967

KBgen: Total number of Kleinman-Bylander projectors:   16
atom: -------------------------------------------------------------------------

atom: SANKEY-TYPE ORBITALS:
atom: Selected multiple-zeta basis: split     

SPLIT: Orbitals with angular momentum L= 0

SPLIT: Basis orbitals for state 2s

SPLIT: PAO cut-off radius determined from an
SPLIT: energy shift=  0.020000 Ry

   izeta = 1
                 lambda =    1.000000
                     rc =    3.305093
                 energy =   -1.740009
                kinetic =    1.602198
    potential(screened) =   -3.342207
       potential(ionic) =  -11.287121

   izeta = 2
                 rmatch =    2.510382
              splitnorm =    0.150000
                 energy =   -1.483129
                kinetic =    2.419988
    potential(screened) =   -3.903117
       potential(ionic) =  -12.432204

SPLIT: Orbitals with angular momentum L= 1

SPLIT: Basis orbitals for state 2p

SPLIT: PAO cut-off radius determined from an
SPLIT: energy shift=  0.020000 Ry

   izeta = 1
                 lambda =    1.000000
                     rc =    3.937239
                 energy =   -0.646301
                kinetic =    4.684247
    potential(screened) =   -5.330548
       potential(ionic) =  -13.029785

   izeta = 2
                 rmatch =    2.541963
              splitnorm =    0.150000
                 energy =   -0.369342
                kinetic =    6.896892
    potential(screened) =   -7.266234
       potential(ionic) =  -15.802088

POLgen: Perturbative polarization orbital with L=  2

POLgen: Polarization orbital for state 2p

   izeta = 1
                     rc =    3.937239
                 energy =    2.419602
                kinetic =    4.834162
    potential(screened) =   -2.414561
       potential(ionic) =   -8.756379
atom: Total number of Sankey-type orbitals: 13

atm_pop: Valence configuration (for local Pseudopot. screening):
 2s( 2.00)                                                            
 2p( 4.00)                                                            
Vna: chval, zval:    6.00000   6.00000

Vna:  Cut-off radius for the neutral-atom potential:   3.937239
comcore: Pseudo-core radius Rcore=  1.377587

atom: _________________________________________________________________________

prinput: Basis input ----------------------------------------------------------

PAO.BasisType split     

%block ChemicalSpeciesLabel
    1    6 C                       # Species index, atomic number, species label
    2    1 H                       # Species index, atomic number, species label
    3    7 N                       # Species index, atomic number, species label
    4    8 O                       # Species index, atomic number, species label
%endblock ChemicalSpeciesLabel

%block PAO.Basis                 # Define Basis set
C                     2                    # Species label, number of l-shells
 n=2   0   2                         # n, l, Nzeta 
   4.088      3.347   
   1.000      1.000   
 n=2   1   2 P   1                   # n, l, Nzeta, Polarization, NzetaPol
   4.870      3.475   
   1.000      1.000   
H                     1                    # Species label, number of l-shells
 n=1   0   1 P   1                   # n, l, Nzeta, Polarization, NzetaPol
   4.709   
   1.000   
N                     2                    # Species label, number of l-shells
 n=2   0   2                         # n, l, Nzeta 
   3.684      2.869   
   1.000      1.000   
 n=2   1   2 P   1                   # n, l, Nzeta, Polarization, NzetaPol
   4.280      2.905   
   1.000      1.000   
O                     2                    # Species label, number of l-shells
 n=2   0   2                         # n, l, Nzeta 
   3.305      2.510   
   1.000      1.000   
 n=2   1   2 P   1                   # n, l, Nzeta, Polarization, NzetaPol
   3.937      2.542   
   1.000      1.000   
%endblock PAO.Basis

prinput: ----------------------------------------------------------------------

Dumping basis to NetCDF file C.ion.nc
Dumping basis to NetCDF file H.ion.nc
Dumping basis to NetCDF file N.ion.nc
Dumping basis to NetCDF file O.ion.nc
coor:   Atomic-coordinates input format  =     Cartesian coordinates
coor:                                          (in Angstroms)

ioxv: Reading coordinates and velocities from file
! Info in XV file prevails over previous structure input
WARNING: NH2-CH2-CN.VERLET_RESTART not found--reading only XV file and moving back 1 time step using Euler

siesta: Atomic coordinates (Bohr) and species
siesta:     -0.53488  -0.31885   0.00000  1        1
siesta:     -0.72568  -1.30769   1.81568  2        2
siesta:     -0.72570  -1.30775  -1.81570  2        3
siesta:      2.07857   1.83058  -0.00000  3        4
siesta:      1.65311   2.54354  -2.29092  2        5
siesta:      1.65311   2.54353   2.29092  2        6
siesta:     -2.90512   1.41408  -0.00000  1        7
siesta:     -2.90512   6.02500  -0.00000  4        8
siesta:     -6.50000   1.38908  -0.00000  4        9
siesta:     -8.40000   1.38908  -0.00000  2       10

siesta: System type = slab      

initatomlists: Number of atoms, orbitals, and projectors:     10    85   125

coxmol: Writing XMOL coordinates into file NH2-CH2-CN.xyz                                                      

siesta: ******************** Simulation parameters ****************************
siesta:
siesta: The following are some of the parameters of the simulation.
siesta: A complete list of the parameters used, including default values,
siesta: can be found in file out.fdf
siesta:
redata: Spin configuration                          = none
redata: Number of spin components                   = 1
redata: Time-Reversal Symmetry                      = T
redata: Spin spiral                                 = F
redata: Long output                                 =   F
redata: Number of Atomic Species                    =        4
redata: Charge density info will appear in .RHO file
redata: Write Mulliken Pop.                         = NO
redata: Matel table size (NRTAB)                    =     1024
redata: Mesh Cutoff                                 =   200.0000 Ry
redata: Net charge of the system                    =     0.0000 |e|
redata: Min. number of SCF Iter                     =        0
redata: Max. number of SCF Iter                     =      150
redata: SCF convergence failure will abort job
redata: SCF mix quantity                            = Hamiltonian
redata: Mix DM or H after convergence               =   F
redata: Recompute H after scf cycle                 =   F
redata: Mix DM in first SCF step                    =   T
redata: Write Pulay info on disk                    =   F
redata: New DM Occupancy tolerance                  = 0.000000000001
redata: No kicks to SCF
redata: DM Mixing Weight for Kicks                  =     0.5000
redata: Require Harris convergence for SCF          =   F
redata: Harris energy tolerance for SCF             =     0.000100 eV
redata: Require DM convergence for SCF              =   T
redata: DM tolerance for SCF                        =     0.000300
redata: Require EDM convergence for SCF             =   F
redata: EDM tolerance for SCF                       =     0.001000 eV
redata: Require H convergence for SCF               =   T
redata: Hamiltonian tolerance for SCF               =     0.001000 eV
redata: Require (free) Energy convergence for SCF   =   F
redata: (free) Energy tolerance for SCF             =     0.000100 eV
redata: Using Saved Data (generic)                  =   F
redata: Use continuation files for DM               =   F
redata: Neglect nonoverlap interactions             =   F
redata: Method of Calculation                       = Diagonalization
redata: Electronic Temperature                      =   290.1109 K
redata: Fix the spin of the system                  =   F
redata: Dynamics option                             = Verlet MD run
redata: Initial MD time step                        =        1
redata:   Final MD time step                        =       50
redata: Length of MD time step                      =     0.5000 fs
redata: Initial Temperature of MD run               =     0.0000 K
redata: Perform a MD quench                         =   F
mix.SCF: Pulay mixing                            = Pulay
mix.SCF:    Variant                              = stable
mix.SCF:    History steps                        = 6
mix.SCF:    Linear mixing weight                 =     0.020000
mix.SCF:    Mixing weight                        =     0.020000
mix.SCF:    SVD condition                        = 0.1000E-07
redata: Save all siesta data in one NC              =   F
redata: ***********************************************************************

%block SCF.Mixers
  Pulay
%endblock SCF.Mixers

%block SCF.Mixer.Pulay
  # Mixing method
  method pulay
  variant stable

  # Mixing options
  weight 0.0200
  weight.linear 0.0200
  history 6
%endblock SCF.Mixer.Pulay

Size of DM history Fstack: 1
Total number of electrons:    30.000000
Total ionic charge:    30.000000

* ProcessorY, Blocksize:    1  24


* Orbital distribution balance (max,min):    85    85

 Kpoints in:            1 . Kpoints trimmed:            1

siesta: k-grid: Number of k-points =     1
siesta: k-grid: Cutoff (effective) =     3.969 Ang
siesta: k-grid: Supercell and displacements
siesta: k-grid:    1   0   0      0.000
siesta: k-grid:    0   1   0      0.000
siesta: k-grid:    0   0   1      0.000

diag: Algorithm                                     = D&C
diag: Parallel over k                               =   F
diag: Use parallel 2D distribution                  =   F
diag: Parallel block-size                           = 24
diag: Parallel distribution                         =     1 x     1
diag: Used triangular part                          = Lower
diag: Absolute tolerance                            =  0.100E-15
diag: Orthogonalization factor                      =  0.100E-05
diag: Memory factor                                 =  1.0000


ts: **************************************************************
ts: Save H and S matrices                           =    F
ts: Save DM and EDM matrices                        =    F
ts: Only save the overlap matrix S                  =    F
ts: **************************************************************

************************ Begin: TS CHECKS AND WARNINGS ************************
************************ End: TS CHECKS AND WARNINGS **************************


                     ====================================
                        Begin MD step =      1
                     ====================================

outcell: Unit cell vectors (Ang):
        7.937655    0.000000    0.000000
        0.000000    7.937655    0.000000
        0.000000    0.000000    7.937655

outcell: Cell vector modules (Ang)   :    7.937655    7.937655    7.937655
outcell: Cell angles (23,13,12) (deg):     90.0000     90.0000     90.0000
outcell: Cell volume (Ang**3)        :    500.1228
Gamma-point calculation with multiply-connected orbital pairs
Gamma-point calculation with multiply-connected orbital pairs
Folding of H and S implicitly performed
Folding of H and S implicitly performed
<dSpData1D:S at geom step 1
  <sparsity:sparsity for geom step 1
    nrows_g=85 nrows=85 sparsity=.9679 nnzs=6993, refcount: 7>
  <dData1D:(new from dSpData1D) n=6993, refcount: 1>
refcount: 1>
new_DM -- step:     1
Initializing Density Matrix...
DM filled with atomic data:
<dSpData2D:DM initialized from atoms
  <sparsity:sparsity for geom step 1
    nrows_g=85 nrows=85 sparsity=.9679 nnzs=6993, refcount: 8>
  <dData2D:DM n=6993 m=1, refcount: 1>
refcount: 1>
No. of atoms with KB's overlaping orbs in proc 0. Max # of overlaps:      10      77
New grid distribution:   1
           1       1:   36    1:   36    1:   36

InitMesh: MESH =    72 x    72 x    72 =      373248
InitMesh: (bp) =    36 x    36 x    36 =       46656
InitMesh: Mesh cutoff (required, used) =   200.000   227.396 Ry
ExtMesh (bp) on 0 =    84 x    84 x    84 =      592704
PhiOnMesh: Number of (b)points on node 0 =                46656
PhiOnMesh: nlist on node 0 =               409130

stepf: Fermi-Dirac step function

siesta: Program's energy decomposition (eV):
siesta: Ebs     =      -284.912916
siesta: Eions   =      2230.571126
siesta: Ena     =       318.352372
siesta: Ekin    =      1073.343006
siesta: Enl     =      -272.070478
siesta: Eso     =         0.000000
siesta: Edftu   =         0.000000
siesta: DEna    =        -3.787893
siesta: DUscf   =        24.479150
siesta: DUext   =         0.000000
siesta: Exc     =      -452.321543
siesta: eta*DQ  =         0.000000
siesta: Emadel  =         0.000000
siesta: Emeta   =         0.000000
siesta: Emolmec =         0.000000
siesta: Ekinion =         0.000000
siesta: Eharris =     -1522.174745
siesta: Etot    =     -1542.576513
siesta: FreeEng =     -1542.576513

        iscf     Eharris(eV)        E_KS(eV)     FreeEng(eV)     dDmax    Ef(eV) dHmax(eV)
   scf:    1    -1522.174745    -1542.576513    -1542.576513  1.869642 -5.701369 19.052159
timer: Routine,Calls,Time,% = IterSCF        1       2.181  10.01
   scf:    2    -1551.006664    -1546.967766    -1546.967766  0.162870 -5.412252 15.819794
   scf:    3    -1494.655084    -1543.729453    -1543.743351  1.281973 -4.384654 20.312884
   scf:    4    -1150.105316    -1388.764998    -1388.764998  2.295903 -3.443465 68.252289
   scf:    5    -1380.570714    -1384.685388    -1384.685388  0.048388 -4.204113 69.302229
   scf:    6    -1366.144376    -1375.514973    -1375.514973  0.148601 -4.436685 71.996689
   scf:    7    -1314.678964    -1520.475159    -1520.475159  2.048285 -4.846848 34.527221
   scf:    8    -1524.521160    -1527.595275    -1527.595275  0.654586 -5.084325 33.707092
   scf:    9    -1528.380933    -1527.994171    -1527.994171  0.018560 -5.065842 33.538101
   scf:   10    -1568.796260    -1552.900527    -1552.900527  0.574737 -5.293935 15.111806
   scf:   11    -1530.093115    -1542.766345    -1542.766345  0.362685 -5.563252 23.024848
   scf:   12    -1417.792185    -1504.098279    -1504.098401  1.008559 -4.779803 37.223200
   scf:   13    -1518.088164    -1511.228934    -1511.229458  0.143002 -4.815913 34.749799
   scf:   14    -1541.619896    -1527.240491    -1527.242018  0.315390 -4.818200 28.574646
   scf:   15    -1544.120856    -1537.073362    -1537.073415  0.332845 -4.894816 21.946256
   scf:   16    -1564.884768    -1556.083295    -1556.085835  0.772660 -4.574400  9.297680
   scf:   17    -1558.017188    -1557.103796    -1557.107608  0.066892 -4.519802  7.580559
   scf:   18    -1558.369158    -1557.869544    -1557.875536  0.128008 -4.482465  5.693363
   scf:   19    -1492.168005    -1538.737145    -1538.746012  2.115713 -4.204264 23.703256
   scf:   20    -1562.053371    -1557.841241    -1557.895036  0.876767 -4.404215  3.172134
   scf:   21    -1550.902557    -1555.053884    -1555.080165  0.512846 -4.346190  9.387497
   scf:   22    -1559.557551    -1558.930143    -1558.969124  1.071557 -4.335004  1.033509
   scf:   23    -1558.563785    -1558.828859    -1558.864354  0.087236 -4.365947  1.938549
   scf:   24    -1558.006774    -1558.450400    -1558.477087  0.124692 -4.393916  3.050651
   scf:   25    -1557.526414    -1558.750106    -1558.777041  1.249714 -4.330939  1.008166
   scf:   26    -1557.220298    -1558.144319    -1558.152202  0.168820 -4.324887  3.465509
   scf:   27    -1557.176686    -1557.754390    -1557.757595  0.271079 -4.259053  5.237255
   scf:   28    -1558.155308    -1558.155119    -1558.156109  0.279157 -4.372363  2.347202
   scf:   29    -1558.969346    -1558.630105    -1558.672567  0.330422 -4.312931  2.339928
   scf:   30    -1555.350056    -1557.830326    -1557.833319  1.301952 -4.318975  5.471036
   scf:   31    -1559.225203    -1558.607696    -1558.615130  0.289393 -4.324480  3.552444
   scf:   32    -1557.698076    -1559.095500    -1559.113210  1.026043 -4.347642  2.150036
   scf:   33    -1559.200562    -1559.299875    -1559.323038  0.557513 -4.341072  0.810012
   scf:   34    -1559.292885    -1559.297678    -1559.319586  0.035685 -4.339710  0.675688
   scf:   35    -1559.306775    -1559.303034    -1559.325829  0.033351 -4.341299  0.765451
   scf:   36    -1559.318630    -1559.313136    -1559.337023  0.071629 -4.339265  0.866403
   scf:   37    -1559.339838    -1559.327680    -1559.352480  0.009503 -4.335734  0.675932
   scf:   38    -1559.307798    -1559.322219    -1559.348172  0.082481 -4.337979  0.948835
   scf:   39    -1559.353986    -1559.345654    -1559.381627  0.137910 -4.336244  0.612173
   scf:   40    -1558.870762    -1559.231171    -1559.284093  0.274206 -4.310861  1.611725
   scf:   41    -1559.400262    -1559.334173    -1559.383912  0.107819 -4.320204  0.774547
   scf:   42    -1559.333869    -1559.334084    -1559.384342  0.008794 -4.323090  0.761347
   scf:   43    -1559.374522    -1559.365895    -1559.409201  0.108298 -4.321325  0.126213
   scf:   44    -1559.364771    -1559.365451    -1559.409792  0.016032 -4.320056  0.121570
   scf:   45    -1559.366104    -1559.366321    -1559.410541  0.030433 -4.306906  0.130330
   scf:   46    -1559.365937    -1559.368161    -1559.409626  0.032759 -4.296122  0.250570
   scf:   47    -1559.369545    -1559.369899    -1559.412351  0.018461 -4.293257  0.058103
   scf:   48    -1559.370783    -1559.370434    -1559.412395  0.006691 -4.289282  0.058011
   scf:   49    -1559.371460    -1559.370983    -1559.412394  0.006542 -4.286567  0.037817
   scf:   50    -1559.368067    -1559.369708    -1559.412352  0.018964 -4.285827  0.023976
   scf:   51    -1559.369757    -1559.369748    -1559.412532  0.005583 -4.286366  0.029454
   scf:   52    -1559.369731    -1559.369749    -1559.412642  0.004259 -4.286859  0.027501
   scf:   53    -1559.369584    -1559.369672    -1559.412638  0.002094 -4.286988  0.029855
   scf:   54    -1559.369732    -1559.369702    -1559.412654  0.000475 -4.286972  0.029248
   scf:   55    -1559.369640    -1559.369682    -1559.412721  0.004082 -4.286273  0.025930
   scf:   56    -1559.369650    -1559.369666    -1559.412717  0.000372 -4.285974  0.027720
   scf:   57    -1559.371057    -1559.370444    -1559.412776  0.010251 -4.282403  0.016457
   scf:   58    -1559.370428    -1559.370441    -1559.412798  0.002991 -4.281562  0.011786
   scf:   59    -1559.370265    -1559.370356    -1559.412805  0.002569 -4.281375  0.009340
   scf:   60    -1559.369811    -1559.370096    -1559.412825  0.004387 -4.279173  0.009899
   scf:   61    -1559.370264    -1559.370181    -1559.412834  0.001178 -4.278844  0.006616
   scf:   62    -1559.370299    -1559.370240    -1559.412836  0.000866 -4.278696  0.003631
   scf:   63    -1559.370213    -1559.370227    -1559.412834  0.000605 -4.278490  0.004934
   scf:   64    -1559.370318    -1559.370274    -1559.412839  0.001842 -4.278195  0.003051
   scf:   65    -1559.370262    -1559.370268    -1559.412839  0.000159 -4.278129  0.002859
   scf:   66    -1559.370161    -1559.370215    -1559.412839  0.000699 -4.277543  0.002601
   scf:   67    -1559.370259    -1559.370237    -1559.412840  0.000378 -4.277493  0.001477
   scf:   68    -1559.370282    -1559.370260    -1559.412840  0.000340 -4.277493  0.001044
   scf:   69    -1559.370279    -1559.370269    -1559.412840  0.000218 -4.277506  0.000704

SCF Convergence by DM+H criterion
max |DM_out - DM_in|         :     0.0002179009
max |H_out - H_in|      (eV) :     0.0007035917
SCF cycle converged after 69 iterations

Using DM_out to compute the final energy and forces
No. of atoms with KB's overlaping orbs in proc 0. Max # of overlaps:      10      77

siesta: E_KS(eV) =            -1559.3703

siesta: E_KS - E_eggbox =     -1559.3703

siesta: Atomic forces (eV/Ang):
----------------------------------------
   Tot   -0.091439   -0.032247   -0.000018
----------------------------------------
   Max    4.875654
   Res    2.173600    sqrt( Sum f_i^2 / 3N )
----------------------------------------
   Max    4.875654    constrained

Stress tensor Voigt[x,y,z,yz,xz,xy] (kbar):       59.38       20.27       36.98        0.00        0.00        4.80
(Free)E + p*V (eV/cell)    -1571.5489
Target enthalpy (eV/cell)    -1559.4128

siesta: Stress tensor (static) (eV/Ang**3):
         0.037063    0.002995    0.000000
         0.002995    0.017442    0.000001
         0.000000    0.000001    0.023083

siesta: Pressure (static):        -41.43678549  kBar

siesta: Stress tensor (total) (eV/Ang**3):
         0.037063    0.002995    0.000000
         0.002995    0.012653    0.000001
         0.000000    0.000001    0.023083

siesta: Pressure (total):        -38.87914539  kBar

siesta: Temp_ion =    1036.921 K

                     ====================================
                        Begin MD step =      2
                     ====================================

outcell: Unit cell vectors (Ang):
        7.937655    0.000000    0.000000
        0.000000    7.937655    0.000000
        0.000000    0.000000    7.937655

outcell: Cell vector modules (Ang)   :    7.937655    7.937655    7.937655
outcell: Cell angles (23,13,12) (deg):     90.0000     90.0000     90.0000
outcell: Cell volume (Ang**3)        :    500.1228
Gamma-point calculation with multiply-connected orbital pairs
Gamma-point calculation with multiply-connected orbital pairs
Folding of H and S implicitly performed
Folding of H and S implicitly performed
<dSpData1D:S at geom step 2
  <sparsity:sparsity for geom step 2
    nrows_g=85 nrows=85 sparsity=.9687 nnzs=6999, refcount: 7>
  <dData1D:(new from dSpData1D) n=6999, refcount: 1>
refcount: 1>
new_DM -- step:     2
Re-using DM from previous geometries...
Number of DMs in history: 1
 DM extrapolation coefficients: 
1   1.00000
New DM after history re-use:
<dSpData2D:SpM extrapolated using coords
  <sparsity:sparsity for geom step 2
    nrows_g=85 nrows=85 sparsity=.9687 nnzs=6999, refcount: 9>
  <dData2D:(temp array for extrapolation) n=6999 m=1, refcount: 1>
refcount: 1>
No. of atoms with KB's overlaping orbs in proc 0. Max # of overlaps:      10      77
New grid distribution:   1
           1       1:   36    1:   36    1:   36

InitMesh: MESH =    72 x    72 x    72 =      373248
InitMesh: (bp) =    36 x    36 x    36 =       46656
InitMesh: Mesh cutoff (required, used) =   200.000   227.396 Ry
ExtMesh (bp) on 0 =    84 x    84 x    84 =      592704
PhiOnMesh: Number of (b)points on node 0 =                46656
PhiOnMesh: nlist on node 0 =               409128

        iscf     Eharris(eV)        E_KS(eV)     FreeEng(eV)     dDmax    Ef(eV) dHmax(eV)
   scf:    1    -1559.301728    -1559.419692    -1559.459976  0.054695 -4.250597  1.213241
   scf:    2    -1491.095583    -1537.098656    -1537.098661  0.741708 -4.600465 24.157366
   scf:    3    -1562.237848    -1559.388169    -1559.417465  0.757214 -4.278368  1.671970
   scf:    4    -1559.460400    -1559.427178    -1559.458392  0.018862 -4.273948  1.256766
   scf:    5    -1559.403726    -1559.466263    -1559.507836  0.117774 -4.259418  0.482465
   scf:    6    -1559.465595    -1559.467527    -1559.510998  0.022442 -4.262507  0.308993
   scf:    7    -1559.439858    -1559.456820    -1559.501070  0.035607 -4.258267  0.662360
   scf:    8    -1559.454487    -1559.455677    -1559.500167  0.002846 -4.258288  0.682529
   scf:    9    -1559.481931    -1559.472878    -1559.514993  0.034352 -4.262444  0.192997
   scf:   10    -1559.475990    -1559.475171    -1559.516265  0.013767 -4.264294  0.016220
   scf:   11    -1559.475082    -1559.475200    -1559.516055  0.003184 -4.264834  0.082223
   scf:   12    -1559.474375    -1559.474926    -1559.516277  0.006535 -4.263974  0.007644
   scf:   13    -1559.475022    -1559.474975    -1559.516280  0.000632 -4.264041  0.003359
   scf:   14    -1559.475018    -1559.474998    -1559.516282  0.001403 -4.263849  0.002157
   scf:   15    -1559.474994    -1559.474996    -1559.516282  0.000127 -4.263819  0.000996

SCF Convergence by DM+H criterion
max |DM_out - DM_in|         :     0.0001267060
max |H_out - H_in|      (eV) :     0.0009957392
SCF cycle converged after 15 iterations

Using DM_out to compute the final energy and forces
No. of atoms with KB's overlaping orbs in proc 0. Max # of overlaps:      10      77

siesta: E_KS(eV) =            -1559.4750

siesta: Atomic forces (eV/Ang):
----------------------------------------
   Tot   -0.084819   -0.180356   -0.000017
----------------------------------------
   Max    4.856855
   Res    2.184150    sqrt( Sum f_i^2 / 3N )
----------------------------------------
   Max    4.856855    constrained

Stress tensor Voigt[x,y,z,yz,xz,xy] (kbar):       59.36       21.59       36.78        0.00        0.00        4.58
(Free)E + p*V (eV/cell)    -1571.7664
Target enthalpy (eV/cell)    -1559.5163

siesta: Stress tensor (static) (eV/Ang**3):
         0.037048    0.002861    0.000000
         0.002861    0.018266    0.000001
         0.000000    0.000001    0.022958

siesta: Pressure (static):        -41.80201184  kBar

siesta: Stress tensor (total) (eV/Ang**3):
         0.037048    0.002861    0.000000
         0.002861    0.013477    0.000001
         0.000000    0.000001    0.022958

siesta: Pressure (total):        -39.24437173  kBar

siesta: Temp_ion =    1125.708 K

                     ====================================
                        Begin MD step =      3
                     ====================================

outcell: Unit cell vectors (Ang):
        7.937655    0.000000    0.000000
        0.000000    7.937655    0.000000
        0.000000    0.000000    7.937655

outcell: Cell vector modules (Ang)   :    7.937655    7.937655    7.937655
outcell: Cell angles (23,13,12) (deg):     90.0000     90.0000     90.0000
outcell: Cell volume (Ang**3)        :    500.1228
Gamma-point calculation with multiply-connected orbital pairs
Gamma-point calculation with multiply-connected orbital pairs
Folding of H and S implicitly performed
Folding of H and S implicitly performed
<dSpData1D:S at geom step 3
  <sparsity:sparsity for geom step 3
    nrows_g=85 nrows=85 sparsity=.9690 nnzs=7001, refcount: 7>
  <dData1D:(new from dSpData1D) n=7001, refcount: 1>
refcount: 1>
new_DM -- step:     3
Re-using DM from previous geometries...
Number of DMs in history: 1
 DM extrapolation coefficients: 
1   1.00000
New DM after history re-use:
<dSpData2D:SpM extrapolated using coords
  <sparsity:sparsity for geom step 3
    nrows_g=85 nrows=85 sparsity=.9690 nnzs=7001, refcount: 9>
  <dData2D:(temp array for extrapolation) n=7001 m=1, refcount: 1>
refcount: 1>
No. of atoms with KB's overlaping orbs in proc 0. Max # of overlaps:      10      77
New grid distribution:   1
           1       1:   36    1:   36    1:   36

InitMesh: MESH =    72 x    72 x    72 =      373248
InitMesh: (bp) =    36 x    36 x    36 =       46656
InitMesh: Mesh cutoff (required, used) =   200.000   227.396 Ry
ExtMesh (bp) on 0 =    84 x    84 x    84 =      592704
PhiOnMesh: Number of (b)points on node 0 =                46656
PhiOnMesh: nlist on node 0 =               409166

        iscf     Eharris(eV)        E_KS(eV)     FreeEng(eV)     dDmax    Ef(eV) dHmax(eV)
   scf:    1    -1559.556992    -1559.682499    -1559.717026  0.068319 -4.261382  0.983470
   scf:    2    -1511.591168    -1543.896022    -1543.896441  0.598312 -4.429143 18.452219
   scf:    3    -1560.476079    -1559.704311    -1559.736281  0.594437 -4.268387  0.588606
   scf:    4    -1559.687106    -1559.696358    -1559.727234  0.011220 -4.270613  0.785227
   scf:    5    -1559.595923    -1559.692434    -1559.736193  0.147880 -4.248376  0.697784
   scf:    6    -1559.721343    -1559.709208    -1559.751139  0.024727 -4.250796  0.334891
   scf:    7    -1559.713683    -1559.718207    -1559.756422  0.043825 -4.249355  0.185966
   scf:    8    -1559.718908    -1559.718591    -1559.756798  0.003617 -4.249919  0.147038
   scf:    9    -1559.715004    -1559.717991    -1559.758174  0.020412 -4.246716  0.069315
   scf:   10    -1559.717732    -1559.718062    -1559.757846  0.016339 -4.245450  0.116883
   scf:   11    -1559.719380    -1559.718980    -1559.758423  0.006483 -4.246797  0.004819
   scf:   12    -1559.719041    -1559.719011    -1559.758424  0.000369 -4.246777  0.004157
   scf:   13    -1559.718892    -1559.718956    -1559.758431  0.003035 -4.246145  0.001586
   scf:   14    -1559.718955    -1559.718956    -1559.758431  0.000138 -4.246125  0.001377
   scf:   15    -1559.718996    -1559.718976    -1559.758432  0.000279 -4.246194  0.001431
   scf:   16    -1559.718959    -1559.718968    -1559.758432  0.000177 -4.246208  0.000964

SCF Convergence by DM+H criterion
max |DM_out - DM_in|         :     0.0001772785
max |H_out - H_in|      (eV) :     0.0009635411
SCF cycle converged after 16 iterations

Using DM_out to compute the final energy and forces
No. of atoms with KB's overlaping orbs in proc 0. Max # of overlaps:      10      77

siesta: E_KS(eV) =            -1559.7190

siesta: Atomic forces (eV/Ang):
----------------------------------------
   Tot   -0.072114   -0.237084   -0.000015
----------------------------------------
   Max    4.796367
   Res    2.176690    sqrt( Sum f_i^2 / 3N )
----------------------------------------
   Max    4.796367    constrained

Stress tensor Voigt[x,y,z,yz,xz,xy] (kbar):       59.88       22.85       35.80        0.00        0.00        4.19
(Free)E + p*V (eV/cell)    -1572.0912
Target enthalpy (eV/cell)    -1559.7584

siesta: Stress tensor (static) (eV/Ang**3):
         0.037395    0.002699    0.000000
         0.002698    0.019216    0.000001
         0.000000    0.000001    0.022567

siesta: Pressure (static):        -42.28595852  kBar

siesta: Stress tensor (total) (eV/Ang**3):
         0.037372    0.002616    0.000000
         0.002615    0.014263    0.000001
         0.000000    0.000001    0.022344

siesta: Pressure (total):        -39.50931891  kBar

siesta: Temp_ion =    1332.998 K

                     ====================================
                        Begin MD step =      4
                     ====================================

outcell: Unit cell vectors (Ang):
        7.937655    0.000000    0.000000
        0.000000    7.937655    0.000000
        0.000000    0.000000    7.937655

outcell: Cell vector modules (Ang)   :    7.937655    7.937655    7.937655
outcell: Cell angles (23,13,12) (deg):     90.0000     90.0000     90.0000
outcell: Cell volume (Ang**3)        :    500.1228
Gamma-point calculation with multiply-connected orbital pairs
Gamma-point calculation with multiply-connected orbital pairs
Folding of H and S implicitly performed
Folding of H and S implicitly performed
<dSpData1D:S at geom step 4
  <sparsity:sparsity for geom step 4
    nrows_g=85 nrows=85 sparsity=.9690 nnzs=7001, refcount: 7>
  <dData1D:(new from dSpData1D) n=7001, refcount: 1>
refcount: 1>
new_DM -- step:     4
Re-using DM from previous geometries...
Number of DMs in history: 1
 DM extrapolation coefficients: 
1   1.00000
New DM after history re-use:
<dSpData2D:SpM extrapolated using coords
  <sparsity:sparsity for geom step 4
    nrows_g=85 nrows=85 sparsity=.9690 nnzs=7001, refcount: 9>
  <dData2D:(temp array for extrapolation) n=7001 m=1, refcount: 1>
refcount: 1>
Note: For starting DM, Qtot, Tr[D*S] =         30.00000000         30.03771432
No. of atoms with KB's overlaping orbs in proc 0. Max # of overlaps:      10      77
New grid distribution:   1
           1       1:   36    1:   36    1:   36

InitMesh: MESH =    72 x    72 x    72 =      373248
InitMesh: (bp) =    36 x    36 x    36 =       46656
InitMesh: Mesh cutoff (required, used) =   200.000   227.396 Ry
ExtMesh (bp) on 0 =    84 x    84 x    84 =      592704
PhiOnMesh: Number of (b)points on node 0 =                46656
PhiOnMesh: nlist on node 0 =               409176

        iscf     Eharris(eV)        E_KS(eV)     FreeEng(eV)     dDmax    Ef(eV) dHmax(eV)
   scf:    1    -1559.820259    -1560.037000    -1560.066542  0.098882 -4.267252  1.159728
   scf:    2    -1534.743116    -1551.772998    -1551.804877  0.434001 -4.207543 15.032098
   scf:    3    -1560.058018    -1560.076009    -1560.108778  0.417499 -4.257764  0.609562
   scf:    4    -1560.089122    -1560.090485    -1560.126697  0.036431 -4.246755  0.139370
   scf:    5    -1560.088330    -1560.090353    -1560.127063  0.010679 -4.240365  0.200176
   scf:    6    -1560.068279    -1560.085031    -1560.123702  0.023157 -4.233228  0.362853
   scf:    7    -1560.088433    -1560.088628    -1560.126428  0.016992 -4.228557  0.291614
   scf:    8    -1560.091807    -1560.091466    -1560.128981  0.007695 -4.228835  0.061821
   scf:    9    -1560.091348    -1560.091409    -1560.128954  0.000333 -4.228709  0.070033
   scf:   10    -1560.092628    -1560.092163    -1560.129190  0.010897 -4.228379  0.009789
   scf:   11    -1560.092195    -1560.092182    -1560.129197  0.000456 -4.228478  0.005093
   scf:   12    -1560.091900    -1560.092047    -1560.129218  0.003526 -4.228075  0.004174
   scf:   13    -1560.092046    -1560.092047    -1560.129218  0.000058 -4.228063  0.004072
   scf:   14    -1560.092172    -1560.092110    -1560.129219  0.000634 -4.228026  0.001345
   scf:   15    -1560.092100    -1560.092105    -1560.129219  0.000095 -4.228013  0.001363
   scf:   16    -1560.091967    -1560.092036    -1560.129219  0.001074 -4.227893  0.001048
   scf:   17    -1560.092030    -1560.092033    -1560.129219  0.000036 -4.227873  0.001038
   scf:   18    -1560.092016    -1560.092025    -1560.129219  0.000466 -4.227696  0.000640
   scf:   19    -1560.092033    -1560.092029    -1560.129219  0.000043 -4.227686  0.000577

SCF Convergence by DM+H criterion
max |DM_out - DM_in|         :     0.0000433081
max |H_out - H_in|      (eV) :     0.0005772229
SCF cycle converged after 19 iterations

Using DM_out to compute the final energy and forces
No. of atoms with KB's overlaping orbs in proc 0. Max # of overlaps:      10      77

siesta: E_KS(eV) =            -1560.0920

siesta: Atomic forces (eV/Ang):
----------------------------------------
   Tot   -0.035521   -0.162092   -0.000012
----------------------------------------
   Max    4.631743
   Res    2.142561    sqrt( Sum f_i^2 / 3N )
----------------------------------------
   Max    4.631743    constrained

Stress tensor Voigt[x,y,z,yz,xz,xy] (kbar):       60.70       24.14       33.11        0.00        0.00        3.67
(Free)E + p*V (eV/cell)    -1572.4018
Target enthalpy (eV/cell)    -1560.1292

siesta: Stress tensor (static) (eV/Ang**3):
         0.037975    0.002456    0.000000
         0.002455    0.020249    0.000001
         0.000000    0.000001    0.021550

siesta: Pressure (static):        -42.60449731  kBar

siesta: Stress tensor (total) (eV/Ang**3):
         0.037883    0.002293    0.000000
         0.002293    0.015069    0.000001
         0.000000    0.000001    0.020666

siesta: Pressure (total):        -39.31656324  kBar

siesta: Temp_ion =    1650.211 K

                     ====================================
                        Begin MD step =      5
                     ====================================

outcell: Unit cell vectors (Ang):
        7.937655    0.000000    0.000000
        0.000000    7.937655    0.000000
        0.000000    0.000000    7.937655

outcell: Cell vector modules (Ang)   :    7.937655    7.937655    7.937655
outcell: Cell angles (23,13,12) (deg):     90.0000     90.0000     90.0000
outcell: Cell volume (Ang**3)        :    500.1228
Gamma-point calculation with multiply-connected orbital pairs
Gamma-point calculation with multiply-connected orbital pairs
Folding of H and S implicitly performed
Folding of H and S implicitly performed
<dSpData1D:S at geom step 5
  <sparsity:sparsity for geom step 5
    nrows_g=85 nrows=85 sparsity=.9690 nnzs=7001, refcount: 7>
  <dData1D:(new from dSpData1D) n=7001, refcount: 1>
refcount: 1>
new_DM -- step:     5
Re-using DM from previous geometries...
Number of DMs in history: 1
 DM extrapolation coefficients: 
1   1.00000
New DM after history re-use:
<dSpData2D:SpM extrapolated using coords
  <sparsity:sparsity for geom step 5
    nrows_g=85 nrows=85 sparsity=.9690 nnzs=7001, refcount: 9>
  <dData2D:(temp array for extrapolation) n=7001 m=1, refcount: 1>
refcount: 1>
Note: For starting DM, Qtot, Tr[D*S] =         30.00000000         30.04988077
No. of atoms with KB's overlaping orbs in proc 0. Max # of overlaps:      10      77
New grid distribution:   1
           1       1:   36    1:   36    1:   36

InitMesh: MESH =    72 x    72 x    72 =      373248
InitMesh: (bp) =    36 x    36 x    36 =       46656
InitMesh: Mesh cutoff (required, used) =   200.000   227.396 Ry
ExtMesh (bp) on 0 =    84 x    84 x    84 =      592704
PhiOnMesh: Number of (b)points on node 0 =                46656
PhiOnMesh: nlist on node 0 =               409112

        iscf     Eharris(eV)        E_KS(eV)     FreeEng(eV)     dDmax    Ef(eV) dHmax(eV)
   scf:    1    -1560.114406    -1560.475823    -1560.500345  0.120480 -4.270928  1.502913
   scf:    2    -1525.509475    -1548.989283    -1549.011807  1.628681 -3.986045 13.406719
   scf:    3    -1560.475409    -1560.545815    -1560.573972  1.593034 -4.255058  0.843457
   scf:    4    -1560.563887    -1560.567032    -1560.599782  0.049988 -4.235911  0.191200
   scf:    5    -1560.565406    -1560.568993    -1560.603146  0.031229 -4.221292  0.145312
   scf:    6    -1560.569060    -1560.569027    -1560.603191  0.000138 -4.221292  0.141376
   scf:    7    -1560.569772    -1560.569511    -1560.603766  0.004150 -4.221874  0.095275
   scf:    8    -1560.568722    -1560.569514    -1560.604320  0.011887 -4.214197  0.044658
   scf:    9    -1560.569848    -1560.569841    -1560.604390  0.012354 -4.213098  0.068004
   scf:   10    -1560.570745    -1560.570403    -1560.604567  0.003390 -4.213221  0.007690
   scf:   11    -1560.570275    -1560.570341    -1560.604584  0.001915 -4.213081  0.006498
   scf:   12    -1560.570306    -1560.570324    -1560.604589  0.000864 -4.213002  0.006736
   scf:   13    -1560.570083    -1560.570208    -1560.604594  0.002883 -4.212170  0.001505
   scf:   14    -1560.570219    -1560.570213    -1560.604594  0.000157 -4.212169  0.001460
   scf:   15    -1560.570301    -1560.570258    -1560.604595  0.001194 -4.212181  0.000850
   scf:   16    -1560.570262    -1560.570260    -1560.604595  0.000016 -4.212178  0.000806

SCF Convergence by DM+H criterion
max |DM_out - DM_in|         :     0.0000161717
max |H_out - H_in|      (eV) :     0.0008063837
SCF cycle converged after 16 iterations

Using DM_out to compute the final energy and forces
No. of atoms with KB's overlaping orbs in proc 0. Max # of overlaps:      10      77

siesta: E_KS(eV) =            -1560.5703

siesta: Atomic forces (eV/Ang):
----------------------------------------
   Tot   -0.042730   -0.018890   -0.000008
----------------------------------------
   Max    4.671653
   Res    2.078262    sqrt( Sum f_i^2 / 3N )
----------------------------------------
   Max    4.671653    constrained

Stress tensor Voigt[x,y,z,yz,xz,xy] (kbar):       61.90       25.10       28.24        0.00        0.00        3.31
(Free)E + p*V (eV/cell)    -1572.5957
Target enthalpy (eV/cell)    -1560.6046

siesta: Stress tensor (static) (eV/Ang**3):
         0.038832    0.002302    0.000000
         0.002302    0.021138    0.000000
         0.000000    0.000000    0.019581

siesta: Pressure (static):        -42.48515771  kBar

siesta: Stress tensor (total) (eV/Ang**3):
         0.038634    0.002064    0.000000
         0.002065    0.015669    0.000000
         0.000000    0.000000    0.017627

siesta: Pressure (total):        -38.41479353  kBar

siesta: Temp_ion =    2056.985 K

                     ====================================
                        Begin MD step =      6
                     ====================================

outcell: Unit cell vectors (Ang):
        7.937655    0.000000    0.000000
        0.000000    7.937655    0.000000
        0.000000    0.000000    7.937655

outcell: Cell vector modules (Ang)   :    7.937655    7.937655    7.937655
outcell: Cell angles (23,13,12) (deg):     90.0000     90.0000     90.0000
outcell: Cell volume (Ang**3)        :    500.1228
Gamma-point calculation with multiply-connected orbital pairs
Gamma-point calculation with multiply-connected orbital pairs
Folding of H and S implicitly performed
Folding of H and S implicitly performed
<dSpData1D:S at geom step 6
  <sparsity:sparsity for geom step 6
    nrows_g=85 nrows=85 sparsity=.9698 nnzs=7007, refcount: 7>
  <dData1D:(new from dSpData1D) n=7007, refcount: 1>
refcount: 1>
new_DM -- step:     6
Re-using DM from previous geometries...
Number of DMs in history: 1
 DM extrapolation coefficients: 
1   1.00000
New DM after history re-use:
<dSpData2D:SpM extrapolated using coords
  <sparsity:sparsity for geom step 6
    nrows_g=85 nrows=85 sparsity=.9698 nnzs=7007, refcount: 9>
  <dData2D:(temp array for extrapolation) n=7007 m=1, refcount: 1>
refcount: 1>
Note: For starting DM, Qtot, Tr[D*S] =         30.00000000         30.06077998
No. of atoms with KB's overlaping orbs in proc 0. Max # of overlaps:      10      77
New grid distribution:   1
           1       1:   36    1:   36    1:   36

InitMesh: MESH =    72 x    72 x    72 =      373248
InitMesh: (bp) =    36 x    36 x    36 =       46656
InitMesh: Mesh cutoff (required, used) =   200.000   227.396 Ry
ExtMesh (bp) on 0 =    84 x    84 x    84 =      592704
PhiOnMesh: Number of (b)points on node 0 =                46656
PhiOnMesh: nlist on node 0 =               409057

        iscf     Eharris(eV)        E_KS(eV)     FreeEng(eV)     dDmax    Ef(eV) dHmax(eV)
   scf:    1    -1560.452403    -1560.975760    -1560.995704  0.128448 -4.273371  1.847748
   scf:    2    -1485.667036    -1536.176589    -1536.178685  1.813728 -3.834421 24.526041
   scf:    3    -1561.033686    -1561.062832    -1561.087146  1.772724 -4.253903  1.183058
   scf:    4    -1561.096886    -1561.105598    -1561.135196  0.061963 -4.225789  0.296598
   scf:    5    -1561.070615    -1561.090596    -1561.121359  0.018791 -4.224633  0.486997
   scf:    6    -1561.102640    -1561.099735    -1561.132853  0.038566 -4.207475  0.532045
   scf:    7    -1561.097603    -1561.111023    -1561.140963  0.042076 -4.211398  0.282918
   scf:    8    -1561.111607    -1561.111941    -1561.142617  0.019994 -4.204988  0.187675
   scf:    9    -1561.108078    -1561.111928    -1561.143920  0.022015 -4.202396  0.126798
   scf:   10    -1561.113001    -1561.112619    -1561.143998  0.018960 -4.202004  0.129267
   scf:   11    -1561.114676    -1561.113987    -1561.144700  0.008003 -4.202865  0.008719
   scf:   12    -1561.113645    -1561.113822    -1561.144718  0.002232 -4.202084  0.010338
   scf:   13    -1561.113895    -1561.113860    -1561.144724  0.000745 -4.202145  0.006785
   scf:   14    -1561.113777    -1561.113821    -1561.144728  0.001861 -4.201633  0.004516
   scf:   15    -1561.113791    -1561.113807    -1561.144729  0.000208 -4.201588  0.003236
   scf:   16    -1561.113762    -1561.113785    -1561.144728  0.001468 -4.201747  0.002115
   scf:   17    -1561.113787    -1561.113786    -1561.144729  0.000019 -4.201761  0.001762
   scf:   18    -1561.113850    -1561.113818    -1561.144731  0.000935 -4.201717  0.001328
   scf:   19    -1561.113824    -1561.113821    -1561.144731  0.000058 -4.201719  0.001248
   scf:   20    -1561.113876    -1561.113849    -1561.144731  0.000654 -4.201786  0.000354
   scf:   21    -1561.113848    -1561.113849    -1561.144731  0.000003 -4.201783  0.000327

SCF Convergence by DM+H criterion
max |DM_out - DM_in|         :     0.0000031697
max |H_out - H_in|      (eV) :     0.0003274258
SCF cycle converged after 21 iterations

Using DM_out to compute the final energy and forces
No. of atoms with KB's overlaping orbs in proc 0. Max # of overlaps:      10      77

siesta: E_KS(eV) =            -1561.1138

siesta: Atomic forces (eV/Ang):
----------------------------------------
   Tot   -0.038963    0.134536   -0.000003
----------------------------------------
   Max    4.733956
   Res    1.988978    sqrt( Sum f_i^2 / 3N )
----------------------------------------
   Max    4.733956    constrained

Stress tensor Voigt[x,y,z,yz,xz,xy] (kbar):       63.21       25.39       21.37        0.00        0.00        3.02
(Free)E + p*V (eV/cell)    -1572.5881
Target enthalpy (eV/cell)    -1561.1447

siesta: Stress tensor (static) (eV/Ang**3):
         0.039789    0.002194    0.000000
         0.002194    0.021663    0.000000
         0.000000    0.000000    0.016691

siesta: Pressure (static):        -41.73361970  kBar

siesta: Stress tensor (total) (eV/Ang**3):
         0.039454    0.001886    0.000000
         0.001886    0.015848    0.000000
         0.000000    0.000000    0.013341

siesta: Pressure (total):        -36.65991754  kBar

siesta: Temp_ion =    2517.541 K

                     ====================================
                        Begin MD step =      7
                     ====================================

outcell: Unit cell vectors (Ang):
        7.937655    0.000000    0.000000
        0.000000    7.937655    0.000000
        0.000000    0.000000    7.937655

outcell: Cell vector modules (Ang)   :    7.937655    7.937655    7.937655
outcell: Cell angles (23,13,12) (deg):     90.0000     90.0000     90.0000
outcell: Cell volume (Ang**3)        :    500.1228
Gamma-point calculation with multiply-connected orbital pairs
Gamma-point calculation with multiply-connected orbital pairs
Folding of H and S implicitly performed
Folding of H and S implicitly performed
<dSpData1D:S at geom step 7
  <sparsity:sparsity for geom step 7
    nrows_g=85 nrows=85 sparsity=.9701 nnzs=7009, refcount: 7>
  <dData1D:(new from dSpData1D) n=7009, refcount: 1>
refcount: 1>
new_DM -- step:     7
Re-using DM from previous geometries...
Number of DMs in history: 1
 DM extrapolation coefficients: 
1   1.00000
New DM after history re-use:
<dSpData2D:SpM extrapolated using coords
  <sparsity:sparsity for geom step 7
    nrows_g=85 nrows=85 sparsity=.9701 nnzs=7009, refcount: 9>
  <dData2D:(temp array for extrapolation) n=7009 m=1, refcount: 1>
refcount: 1>
Note: For starting DM, Qtot, Tr[D*S] =         30.00000000         30.06909219
No. of atoms with KB's overlaping orbs in proc 0. Max # of overlaps:      10      77
New grid distribution:   1
           1       1:   36    1:   36    1:   36

InitMesh: MESH =    72 x    72 x    72 =      373248
InitMesh: (bp) =    36 x    36 x    36 =       46656
InitMesh: Mesh cutoff (required, used) =   200.000   227.396 Ry
ExtMesh (bp) on 0 =    84 x    84 x    84 =      592704
PhiOnMesh: Number of (b)points on node 0 =                46656
PhiOnMesh: nlist on node 0 =               409097

        iscf     Eharris(eV)        E_KS(eV)     FreeEng(eV)     dDmax    Ef(eV) dHmax(eV)
   scf:    1    -1560.850665    -1561.495020    -1561.510899  0.125000 -4.273026  2.001713
   scf:    2    -1455.487634    -1526.546592    -1526.548430  1.845261 -3.800749 30.338307
   scf:    3    -1561.505352    -1561.590030    -1561.609743  1.810319 -4.252799  1.354865
   scf:    4    -1561.630149    -1561.643338    -1561.668465  0.068618 -4.219493  0.369142
   scf:    5    -1561.549248    -1561.604033    -1561.631045  0.029242 -4.216762  0.898158
   scf:    6    -1561.612260    -1561.610709    -1561.640702  0.025560 -4.197964  1.026682
   scf:    7    -1561.637366    -1561.654417    -1561.679947  0.063382 -4.205877  0.255294
   scf:    8    -1561.650369    -1561.654626    -1561.682323  0.019269 -4.199764  0.063363
   scf:    9    -1561.654910    -1561.654853    -1561.682529  0.003045 -4.197990  0.027485
   scf:   10    -1561.657494    -1561.656540    -1561.683077  0.028444 -4.198146  0.021243
   scf:   11    -1561.656373    -1561.656461    -1561.683098  0.000871 -4.198079  0.008298
   scf:   12    -1561.656459    -1561.656460    -1561.683101  0.000202 -4.198030  0.007504
   scf:   13    -1561.656209    -1561.656349    -1561.683127  0.005701 -4.197077  0.004262
   scf:   14    -1561.656348    -1561.656349    -1561.683127  0.000236 -4.196915  0.003612
   scf:   15    -1561.656470    -1561.656411    -1561.683130  0.001338 -4.196905  0.003293
   scf:   16    -1561.656398    -1561.656404    -1561.683130  0.000147 -4.196916  0.003396
   scf:   17    -1561.656369    -1561.656387    -1561.683130  0.000401 -4.196994  0.003640
   scf:   18    -1561.656365    -1561.656376    -1561.683130  0.000329 -4.196987  0.003471
   scf:   19    -1561.656358    -1561.656367    -1561.683129  0.000437 -4.196947  0.002295
   scf:   20    -1561.656392    -1561.656380    -1561.683130  0.000364 -4.196993  0.001340
   scf:   21    -1561.656429    -1561.656405    -1561.683131  0.000867 -4.197074  0.000385
   scf:   22    -1561.656424    -1561.656415    -1561.683131  0.000182 -4.197068  0.000245

SCF Convergence by DM+H criterion
max |DM_out - DM_in|         :     0.0001816011
max |H_out - H_in|      (eV) :     0.0002450481
SCF cycle converged after 22 iterations

Using DM_out to compute the final energy and forces
No. of atoms with KB's overlaping orbs in proc 0. Max # of overlaps:      10      77

siesta: E_KS(eV) =            -1561.6564

siesta: Atomic forces (eV/Ang):
----------------------------------------
   Tot   -0.006004    0.115471    0.000001
----------------------------------------
   Max    4.812858
   Res    1.893808    sqrt( Sum f_i^2 / 3N )
----------------------------------------
   Max    4.812858    constrained

Stress tensor Voigt[x,y,z,yz,xz,xy] (kbar):       64.42       25.91       11.40       -0.00       -0.00        2.85
(Free)E + p*V (eV/cell)    -1572.2679
Target enthalpy (eV/cell)    -1561.6831

siesta: Stress tensor (static) (eV/Ang**3):
         0.040700    0.002157    0.000000
         0.002157    0.022388   -0.000000
         0.000000   -0.000000    0.012032

siesta: Pressure (static):        -40.11893715  kBar

siesta: Stress tensor (total) (eV/Ang**3):
         0.040205    0.001782   -0.000000
         0.001782    0.016172   -0.000000
        -0.000000   -0.000000    0.007115

siesta: Pressure (total):        -33.90924085  kBar

siesta: Temp_ion =    2973.927 K

                     ====================================
                        Begin MD step =      8
                     ====================================

outcell: Unit cell vectors (Ang):
        7.937655    0.000000    0.000000
        0.000000    7.937655    0.000000
        0.000000    0.000000    7.937655

outcell: Cell vector modules (Ang)   :    7.937655    7.937655    7.937655
outcell: Cell angles (23,13,12) (deg):     90.0000     90.0000     90.0000
outcell: Cell volume (Ang**3)        :    500.1228
Gamma-point calculation with multiply-connected orbital pairs
Gamma-point calculation with multiply-connected orbital pairs
Folding of H and S implicitly performed
Folding of H and S implicitly performed
<dSpData1D:S at geom step 8
  <sparsity:sparsity for geom step 8
    nrows_g=85 nrows=85 sparsity=.9889 nnzs=7145, refcount: 7>
  <dData1D:(new from dSpData1D) n=7145, refcount: 1>
refcount: 1>
new_DM -- step:     8
Re-using DM from previous geometries...
Number of DMs in history: 1
 DM extrapolation coefficients: 
1   1.00000
New DM after history re-use:
<dSpData2D:SpM extrapolated using coords
  <sparsity:sparsity for geom step 8
    nrows_g=85 nrows=85 sparsity=.9889 nnzs=7145, refcount: 9>
  <dData2D:(temp array for extrapolation) n=7145 m=1, refcount: 1>
refcount: 1>
Note: For starting DM, Qtot, Tr[D*S] =         30.00000000         30.07282120
No. of atoms with KB's overlaping orbs in proc 0. Max # of overlaps:      10      81
New grid distribution:   1
           1       1:   36    1:   36    1:   36

InitMesh: MESH =    72 x    72 x    72 =      373248
InitMesh: (bp) =    36 x    36 x    36 =       46656
InitMesh: Mesh cutoff (required, used) =   200.000   227.396 Ry
ExtMesh (bp) on 0 =    84 x    84 x    84 =      592704
PhiOnMesh: Number of (b)points on node 0 =                46656
PhiOnMesh: nlist on node 0 =               408969

        iscf     Eharris(eV)        E_KS(eV)     FreeEng(eV)     dDmax    Ef(eV) dHmax(eV)
   scf:    1    -1561.295992    -1561.956677    -1561.969247  0.108693 -4.265594  1.868712
   scf:    2    -1487.906331    -1537.574836    -1537.578278  1.734932 -3.838136 24.576438
   scf:    3    -1561.918161    -1562.044695    -1562.059971  1.707995 -4.245872  1.225798
   scf:    4    -1562.079643    -1562.089228    -1562.108308  0.059691 -4.214901  0.316196
   scf:    5    -1561.988796    -1562.048425    -1562.069099  0.033695 -4.211710  0.857514
   scf:    6    -1562.112572    -1562.091671    -1562.113581  0.052440 -4.198247  0.353608
   scf:    7    -1562.066205    -1562.091573    -1562.111227  0.043309 -4.203451  0.448936
   scf:    8    -1562.091132    -1562.092464    -1562.113717  0.028150 -4.202197  0.384089
   scf:    9    -1562.078246    -1562.093282    -1562.116990  0.033933 -4.194037  0.294283
   scf:   10    -1562.100223    -1562.097439    -1562.119651  0.016772 -4.196266  0.113297
   scf:   11    -1562.098850    -1562.098377    -1562.120137  0.005234 -4.197453  0.009645
   scf:   12    -1562.098373    -1562.098375    -1562.120141  0.000318 -4.197329  0.007469
   scf:   13    -1562.098627    -1562.098516    -1562.120164  0.005329 -4.196590  0.007167
   scf:   14    -1562.098477    -1562.098498    -1562.120168  0.000557 -4.196514  0.002712
   scf:   15    -1562.098520    -1562.098509    -1562.120169  0.000373 -4.196584  0.003039
   scf:   16    -1562.098440    -1562.098475    -1562.120168  0.000845 -4.196682  0.003367
   scf:   17    -1562.098461    -1562.098468    -1562.120168  0.000059 -4.196690  0.003390
   scf:   18    -1562.098451    -1562.098460    -1562.120170  0.001007 -4.196898  0.000989
   scf:   19    -1562.098477    -1562.098469    -1562.120170  0.000106 -4.196841  0.000513

SCF Convergence by DM+H criterion
max |DM_out - DM_in|         :     0.0001064127
max |H_out - H_in|      (eV) :     0.0005133612
SCF cycle converged after 19 iterations

Using DM_out to compute the final energy and forces
No. of atoms with KB's overlaping orbs in proc 0. Max # of overlaps:      10      81

siesta: E_KS(eV) =            -1562.0985

siesta: Atomic forces (eV/Ang):
----------------------------------------
   Tot    0.028485    0.059275    0.000006
----------------------------------------
   Max    4.880252
   Res    1.852850    sqrt( Sum f_i^2 / 3N )
----------------------------------------
   Max    4.880252    constrained

Stress tensor Voigt[x,y,z,yz,xz,xy] (kbar):       65.49       25.39       -1.04       -0.00       -0.00        3.09
(Free)E + p*V (eV/cell)    -1571.4682
Target enthalpy (eV/cell)    -1562.1202

siesta: Stress tensor (static) (eV/Ang**3):
         0.041545    0.002367    0.000000
         0.002366    0.022532   -0.000000
         0.000000   -0.000000    0.005733

siesta: Pressure (static):        -37.28283781  kBar

siesta: Stress tensor (total) (eV/Ang**3):
         0.040876    0.001929   -0.000000
         0.001928    0.015849   -0.000000
        -0.000000   -0.000000   -0.000650

siesta: Pressure (total):        -29.94743399  kBar

siesta: Temp_ion =    3342.688 K

                     ====================================
                        Begin MD step =      9
                     ====================================

outcell: Unit cell vectors (Ang):
        7.937655    0.000000    0.000000
        0.000000    7.937655    0.000000
        0.000000    0.000000    7.937655

outcell: Cell vector modules (Ang)   :    7.937655    7.937655    7.937655
outcell: Cell angles (23,13,12) (deg):     90.0000     90.0000     90.0000
outcell: Cell volume (Ang**3)        :    500.1228
Gamma-point calculation with multiply-connected orbital pairs
Gamma-point calculation with multiply-connected orbital pairs
Folding of H and S implicitly performed
Folding of H and S implicitly performed
<dSpData1D:S at geom step 9
  <sparsity:sparsity for geom step 9
    nrows_g=85 nrows=85 sparsity=.9889 nnzs=7145, refcount: 7>
  <dData1D:(new from dSpData1D) n=7145, refcount: 1>
refcount: 1>
new_DM -- step:     9
Re-using DM from previous geometries...
Number of DMs in history: 1
 DM extrapolation coefficients: 
1   1.00000
New DM after history re-use:
<dSpData2D:SpM extrapolated using coords
  <sparsity:sparsity for geom step 9
    nrows_g=85 nrows=85 sparsity=.9889 nnzs=7145, refcount: 9>
  <dData2D:(temp array for extrapolation) n=7145 m=1, refcount: 1>
refcount: 1>
Note: For starting DM, Qtot, Tr[D*S] =         30.00000000         30.07002939
No. of atoms with KB's overlaping orbs in proc 0. Max # of overlaps:      10      81
New grid distribution:   1
           1       1:   36    1:   36    1:   36

InitMesh: MESH =    72 x    72 x    72 =      373248
[...]
Folding of H and S implicitly performed
<dSpData1D:S at geom step 48
  <sparsity:sparsity for geom step 48
    nrows_g=85 nrows=85 sparsity=1.0000 nnzs=7225, refcount: 7>
  <dData1D:(new from dSpData1D) n=7225, refcount: 1>
refcount: 1>
new_DM -- step:    48
Re-using DM from previous geometries...
Number of DMs in history: 1
 DM extrapolation coefficients: 
1   1.00000
New DM after history re-use:
<dSpData2D:SpM extrapolated using coords
  <sparsity:sparsity for geom step 48
    nrows_g=85 nrows=85 sparsity=1.0000 nnzs=7225, refcount: 9>
  <dData2D:(temp array for extrapolation) n=7225 m=1, refcount: 1>
refcount: 1>
Note: For starting DM, Qtot, Tr[D*S] =         30.00000000         29.91704543
No. of atoms with KB's overlaping orbs in proc 0. Max # of overlaps:      10      85
New grid distribution:   1
           1       1:   36    1:   36    1:   36

InitMesh: MESH =    72 x    72 x    72 =      373248
InitMesh: (bp) =    36 x    36 x    36 =       46656
InitMesh: Mesh cutoff (required, used) =   200.000   227.396 Ry
ExtMesh (bp) on 0 =    84 x    84 x    84 =      592704
PhiOnMesh: Number of (b)points on node 0 =                46656
PhiOnMesh: nlist on node 0 =               408956

        iscf     Eharris(eV)        E_KS(eV)     FreeEng(eV)     dDmax    Ef(eV) dHmax(eV)
   scf:    1    -1568.280238    -1567.717820    -1567.717820  0.253385 -2.971192  3.025579
   scf:    2    -1541.860553    -1559.646259    -1559.646259  0.685717 -3.336478 16.524761
   scf:    3    -1568.720873    -1567.974706    -1567.974706  0.617817 -3.177580  0.599691
   scf:    4    -1567.796778    -1567.899219    -1567.899219  0.032825 -2.786865  1.674379
   scf:    5    -1567.972314    -1567.992782    -1567.992782  0.080816 -3.018390  0.409030
   scf:    6    -1567.960222    -1567.979464    -1567.979464  0.012873 -2.973331  0.825224
   scf:    7    -1568.002731    -1567.992693    -1567.992693  0.005565 -3.000370  0.485808
   scf:    8    -1567.999465    -1567.996383    -1567.996383  0.004536 -3.018752  0.328520
   scf:    9    -1568.001130    -1567.999691    -1567.999691  0.006354 -3.054015  0.053452
   scf:   10    -1567.999813    -1567.999762    -1567.999762  0.000851 -3.057592  0.025893
   scf:   11    -1567.999820    -1567.999796    -1567.999796  0.000598 -3.060435  0.013763
   scf:   12    -1567.999806    -1567.999802    -1567.999802  0.000261 -3.061923  0.003459
   scf:   13    -1567.999804    -1567.999803    -1567.999803  0.000178 -3.061697  0.003114
   scf:   14    -1567.999804    -1567.999804    -1567.999804  0.000051 -3.061719  0.003137
   scf:   15    -1567.999807    -1567.999805    -1567.999805  0.000168 -3.061541  0.001713
   scf:   16    -1567.999805    -1567.999805    -1567.999805  0.000013 -3.061508  0.001584
   scf:   17    -1567.999806    -1567.999806    -1567.999806  0.000084 -3.061439  0.000366

SCF Convergence by DM+H criterion
max |DM_out - DM_in|         :     0.0000838539
max |H_out - H_in|      (eV) :     0.0003656434
SCF cycle converged after 17 iterations

Using DM_out to compute the final energy and forces
No. of atoms with KB's overlaping orbs in proc 0. Max # of overlaps:      10      85

siesta: E_KS(eV) =            -1567.9998

siesta: Atomic forces (eV/Ang):
----------------------------------------
   Tot    0.127827   -0.004087   -0.000060
----------------------------------------
   Max   14.479753
   Res    4.409534    sqrt( Sum f_i^2 / 3N )
----------------------------------------
   Max   14.479753    constrained

Stress tensor Voigt[x,y,z,yz,xz,xy] (kbar):      -97.13      -17.26       40.73        0.00        0.00       31.22
(Free)E + p*V (eV/cell)    -1560.3362
Target enthalpy (eV/cell)    -1567.9998

siesta: Stress tensor (static) (eV/Ang**3):
        -0.031552    0.017925    0.000001
         0.017925   -0.003874    0.000001
         0.000001    0.000001    0.025492

siesta: Pressure (static):          5.30516627  kBar

siesta: Stress tensor (total) (eV/Ang**3):
        -0.060624    0.019483    0.000001
         0.019483   -0.010771    0.000001
         0.000001    0.000001    0.025424

siesta: Pressure (total):         24.55118256  kBar

siesta: Temp_ion =    8392.638 K

                     ====================================
                        Begin MD step =     49
                     ====================================

outcell: Unit cell vectors (Ang):
        7.937655    0.000000    0.000000
        0.000000    7.937655    0.000000
        0.000000    0.000000    7.937655

outcell: Cell vector modules (Ang)   :    7.937655    7.937655    7.937655
outcell: Cell angles (23,13,12) (deg):     90.0000     90.0000     90.0000
outcell: Cell volume (Ang**3)        :    500.1228
Gamma-point calculation with multiply-connected orbital pairs
Gamma-point calculation with multiply-connected orbital pairs
Folding of H and S implicitly performed
Folding of H and S implicitly performed
<dSpData1D:S at geom step 49
  <sparsity:sparsity for geom step 49
    nrows_g=85 nrows=85 sparsity=.9956 nnzs=7193, refcount: 7>
  <dData1D:(new from dSpData1D) n=7193, refcount: 1>
refcount: 1>
new_DM -- step:    49
Re-using DM from previous geometries...
Number of DMs in history: 1
 DM extrapolation coefficients: 
1   1.00000
New DM after history re-use:
<dSpData2D:SpM extrapolated using coords
  <sparsity:sparsity for geom step 49
    nrows_g=85 nrows=85 sparsity=.9956 nnzs=7193, refcount: 9>
  <dData2D:(temp array for extrapolation) n=7193 m=1, refcount: 1>
refcount: 1>
Note: For starting DM, Qtot, Tr[D*S] =         30.00000000         29.91409852
No. of atoms with KB's overlaping orbs in proc 0. Max # of overlaps:      10      81
New grid distribution:   1
           1       1:   36    1:   36    1:   36

InitMesh: MESH =    72 x    72 x    72 =      373248
InitMesh: (bp) =    36 x    36 x    36 =       46656
InitMesh: Mesh cutoff (required, used) =   200.000   227.396 Ry
ExtMesh (bp) on 0 =    84 x    84 x    84 =      592704
PhiOnMesh: Number of (b)points on node 0 =                46656
PhiOnMesh: nlist on node 0 =               409038

        iscf     Eharris(eV)        E_KS(eV)     FreeEng(eV)     dDmax    Ef(eV) dHmax(eV)
   scf:    1    -1568.454107    -1568.223786    -1568.223786  0.238382 -2.670130  3.267174
   scf:    2    -1533.295090    -1557.262223    -1557.262223  0.788373 -3.353295 19.092100
   scf:    3    -1569.465645    -1568.529120    -1568.529120  0.724118 -2.846754  0.698717
   scf:    4    -1568.513912    -1568.521804    -1568.521804  0.004377 -2.866639  0.851205
   scf:    5    -1568.568095    -1568.554913    -1568.554913  0.034253 -2.994406  0.148609
   scf:    6    -1568.541562    -1568.551661    -1568.551661  0.016027 -2.933589  0.409696
   scf:    7    -1568.559917    -1568.556603    -1568.556603  0.004009 -2.935164  0.207069
   scf:    8    -1568.555192    -1568.555953    -1568.555953  0.004224 -2.926745  0.251946
   scf:    9    -1568.555479    -1568.557452    -1568.557452  0.008594 -2.976395  0.128268
   scf:   10    -1568.557397    -1568.557825    -1568.557825  0.005311 -2.951487  0.054355
   scf:   11    -1568.557980    -1568.557934    -1568.557934  0.000980 -2.959253  0.008471
   scf:   12    -1568.557937    -1568.557936    -1568.557936  0.000084 -2.959806  0.004532
   scf:   13    -1568.557941    -1568.557939    -1568.557939  0.000447 -2.959544  0.001714
   scf:   14    -1568.557939    -1568.557939    -1568.557939  0.000042 -2.959537  0.001503
   scf:   15    -1568.557939    -1568.557939    -1568.557939  0.000072 -2.959523  0.001356
   scf:   16    -1568.557940    -1568.557940    -1568.557940  0.000058 -2.959556  0.000914

SCF Convergence by DM+H criterion
max |DM_out - DM_in|         :     0.0000583466
max |H_out - H_in|      (eV) :     0.0009138831
SCF cycle converged after 16 iterations

Using DM_out to compute the final energy and forces
No. of atoms with KB's overlaping orbs in proc 0. Max # of overlaps:      10      81

siesta: E_KS(eV) =            -1568.5579

siesta: Atomic forces (eV/Ang):
----------------------------------------
   Tot   -0.104840   -0.059620    0.000066
----------------------------------------
   Max    8.531121
   Res    3.218339    sqrt( Sum f_i^2 / 3N )
----------------------------------------
   Max    8.531121    constrained

Stress tensor Voigt[x,y,z,yz,xz,xy] (kbar):      -81.78       -8.10       40.65        0.00        0.00       38.76
(Free)E + p*V (eV/cell)    -1563.4362
Target enthalpy (eV/cell)    -1568.5579

siesta: Stress tensor (static) (eV/Ang**3):
        -0.019443    0.020809    0.000001
         0.020809    0.002028    0.000001
         0.000001    0.000001    0.025453

siesta: Pressure (static):         -4.29295329  kBar

siesta: Stress tensor (total) (eV/Ang**3):
        -0.051044    0.024191    0.000001
         0.024191   -0.005053    0.000000
         0.000001    0.000000    0.025374

siesta: Pressure (total):         16.40809121  kBar

siesta: Temp_ion =    8867.065 K

                     ====================================
                        Begin MD step =     50
                     ====================================

outcell: Unit cell vectors (Ang):
        7.937655    0.000000    0.000000
        0.000000    7.937655    0.000000
        0.000000    0.000000    7.937655

outcell: Cell vector modules (Ang)   :    7.937655    7.937655    7.937655
outcell: Cell angles (23,13,12) (deg):     90.0000     90.0000     90.0000
outcell: Cell volume (Ang**3)        :    500.1228
Gamma-point calculation with multiply-connected orbital pairs
Gamma-point calculation with multiply-connected orbital pairs
Folding of H and S implicitly performed
Folding of H and S implicitly performed
<dSpData1D:S at geom step 50
  <sparsity:sparsity for geom step 50
    nrows_g=85 nrows=85 sparsity=.9956 nnzs=7193, refcount: 7>
  <dData1D:(new from dSpData1D) n=7193, refcount: 1>
refcount: 1>
new_DM -- step:    50
Re-using DM from previous geometries...
Number of DMs in history: 1
 DM extrapolation coefficients: 
1   1.00000
New DM after history re-use:
<dSpData2D:SpM extrapolated using coords
  <sparsity:sparsity for geom step 50
    nrows_g=85 nrows=85 sparsity=.9956 nnzs=7193, refcount: 9>
  <dData2D:(temp array for extrapolation) n=7193 m=1, refcount: 1>
refcount: 1>
Note: For starting DM, Qtot, Tr[D*S] =         30.00000000         29.90912396
No. of atoms with KB's overlaping orbs in proc 0. Max # of overlaps:      10      81
New grid distribution:   1
           1       1:   36    1:   36    1:   36

InitMesh: MESH =    72 x    72 x    72 =      373248
InitMesh: (bp) =    36 x    36 x    36 =       46656
InitMesh: Mesh cutoff (required, used) =   200.000   227.396 Ry
ExtMesh (bp) on 0 =    84 x    84 x    84 =      592704
PhiOnMesh: Number of (b)points on node 0 =                46656
PhiOnMesh: nlist on node 0 =               409199

        iscf     Eharris(eV)        E_KS(eV)     FreeEng(eV)     dDmax    Ef(eV) dHmax(eV)
   scf:    1    -1568.225408    -1568.462455    -1568.462455  0.209373 -2.910360  3.393783
   scf:    2    -1525.353230    -1554.920859    -1554.920859  0.847626 -3.247792 20.864786
   scf:    3    -1570.033057    -1568.838277    -1568.838277  0.788145 -2.551176  0.710371
   scf:    4    -1568.859792    -1568.851076    -1568.851076  0.010184 -2.501874  0.483915
   scf:    5    -1568.872497    -1568.867358    -1568.867358  0.019939 -2.926149  0.119074
   scf:    6    -1568.865457    -1568.867262    -1568.867262  0.006239 -2.901133  0.196079
   scf:    7    -1568.871622    -1568.870071    -1568.870071  0.005759 -2.888432  0.055151
   scf:    8    -1568.868136    -1568.869414    -1568.869414  0.005314 -2.879022  0.156611
   scf:    9    -1568.870355    -1568.870393    -1568.870393  0.003723 -2.893518  0.019272
   scf:   10    -1568.870380    -1568.870402    -1568.870402  0.000839 -2.892884  0.021608
   scf:   11    -1568.870418    -1568.870416    -1568.870416  0.000632 -2.891569  0.005010
   scf:   12    -1568.870417    -1568.870417    -1568.870417  0.000016 -2.891630  0.004468
   scf:   13    -1568.870421    -1568.870419    -1568.870419  0.000409 -2.891548  0.001562
   scf:   14    -1568.870419    -1568.870419    -1568.870419  0.000018 -2.891529  0.001509
   scf:   15    -1568.870419    -1568.870419    -1568.870419  0.000089 -2.891450  0.001237
   scf:   16    -1568.870419    -1568.870419    -1568.870419  0.000033 -2.891457  0.000995

SCF Convergence by DM+H criterion
max |DM_out - DM_in|         :     0.0000328614
max |H_out - H_in|      (eV) :     0.0009946029
SCF cycle converged after 16 iterations

Using DM_out to compute the final energy and forces
No. of atoms with KB's overlaping orbs in proc 0. Max # of overlaps:      10      81

siesta: E_KS(eV) =            -1568.8704

siesta: Atomic forces (eV/Ang):
----------------------------------------
   Tot   -0.132823   -0.164768   -0.000049
----------------------------------------
   Max    7.480789
   Res    2.562585    sqrt( Sum f_i^2 / 3N )
----------------------------------------
   Max    7.480789    constrained

Stress tensor Voigt[x,y,z,yz,xz,xy] (kbar):      -67.34        0.45       38.86        0.00        0.00       43.89
(Free)E + p*V (eV/cell)    -1565.9547
Target enthalpy (eV/cell)    -1568.8704

siesta: Stress tensor (static) (eV/Ang**3):
        -0.008724    0.022701    0.000001
         0.022700    0.007339    0.000000
         0.000001    0.000000    0.024847

siesta: Pressure (static):        -12.53048269  kBar

siesta: Stress tensor (total) (eV/Ang**3):
        -0.042030    0.027392    0.000001
         0.027392    0.000284    0.000000
         0.000001    0.000000    0.024256

siesta: Pressure (total):          9.34076866  kBar

siesta: Temp_ion =    9135.570 K

coxmol: Writing XMOL coordinates into file NH2-CH2-CN.xyz                                                      

siesta: Program's energy decomposition (eV):
siesta: Ebs     =      -364.888967
siesta: Eions   =      2230.571126
siesta: Ena     =       309.200677
siesta: Ekin    =      1066.432325
siesta: Enl     =      -261.447532
siesta: Eso     =         0.000000
siesta: Edftu   =         0.000000
siesta: DEna    =        -0.143784
siesta: DUscf   =         2.395382
siesta: DUext   =         0.000000
siesta: Exc     =      -454.736361
siesta: eta*DQ  =         0.000000
siesta: Emadel  =         0.000000
siesta: Emeta   =         0.000000
siesta: Emolmec =         0.000000
siesta: Ekinion =        10.627363
siesta: Eharris =     -1558.243057
siesta: Etot    =     -1558.243057
siesta: FreeEng =     -1558.243057

siesta: Final energy (eV):
siesta:  Band Struct. =    -364.888967
siesta:       Kinetic =    1066.432325
siesta:       Hartree =    1795.653691
siesta:       Edftu   =       0.000000
siesta:       Eso     =       0.000000
siesta:    Ext. field =       0.000000
siesta:   Exch.-corr. =    -454.736361
siesta:  Ion-electron =   -4499.446332
siesta:       Ion-ion =     523.226258
siesta:       Ekinion =      10.627363
siesta:         Total =   -1558.243057
siesta:         Fermi =      -2.891457

siesta: Atomic forces (eV/Ang):
siesta:      1    2.755413    0.275341   -0.000148
siesta:      2    0.561065   -0.605226   -0.095071
siesta:      3    0.561150   -0.605149    0.095239
siesta:      4    0.136465   -1.028874   -0.000015
siesta:      5   -0.181285   -0.409144    5.128858
siesta:      6   -0.181472   -0.409261   -5.128929
siesta:      7    3.842347    7.480789    0.000025
siesta:      8   -4.962472   -5.070475   -0.000011
siesta:      9   -3.460649    0.398525   -0.000005
siesta:     10    0.796615   -0.191294    0.000007
siesta: ----------------------------------------
siesta:    Tot   -0.132823   -0.164768   -0.000049

siesta: Stress tensor (static) (eV/Ang**3):
siesta:    -0.008724    0.022701    0.000001
siesta:     0.022700    0.007339    0.000000
siesta:     0.000001    0.000000    0.024847

siesta: Cell volume =        500.122803 Ang**3

siesta: Pressure (static):
siesta:                Solid            Molecule  Units
siesta:          -0.00008518         -0.00000543  Ry/Bohr**3
siesta:          -0.00782083         -0.00049889  eV/Ang**3
siesta:         -12.53048269         -0.79931213  kBar
(Free)E+ p_basis*V_orbitals  =       -1566.981622
(Free)Eharris+ p_basis*V_orbitals  =       -1566.981623

siesta: Electric dipole (a.u.)  =    0.000000   -1.261890    0.000002
siesta: Electric dipole (Debye) =    0.000000   -3.207407    0.000005

cite: Please see "NH2-CH2-CN.bib" for an exhaustive BiBTeX file.
cite: Please clearly indicate Siesta version in published work: 4.1.5
cite: This calculation has made use of the following articles
cite: which are encouraged to be cited in a published work.
        Primary SIESTA paper
          DOI: www.doi.org/10.1088/0953-8984/14/11/302


timer: Elapsed wall time (sec) =     426.817
timer: CPU execution times (sec):

Routine            Calls   Time/call    Tot.time        %
siesta                 1    1517.220    1517.220   100.00
Setup                  1       0.353       0.353     0.02
bands                  1       0.000       0.000     0.00
KSV_init               1       0.000       0.000     0.00
IterGeom              50      30.337    1516.862    99.98
state_init            50       0.055       2.748     0.18
hsparse               50       0.001       0.037     0.00
overlap               50       0.054       2.682     0.18
Setup_H0              50       0.929      46.427     3.06
naefs                100       0.000       0.007     0.00
MolMec               100       0.000       0.000     0.00
kinefsm              100       0.028       2.779     0.18
nlefsm               100       0.182      18.207     1.20
DHSCF_Init            50       0.521      26.043     1.72
DHSCF1                50       0.012       0.613     0.04
INITMESH              50       0.000       0.000     0.00
DHSCF2                50       0.509      25.429     1.68
REMESH                50       0.057       2.852     0.19
REORD               2628       0.004      11.140     0.73
PHION                 50       0.306      15.280     1.01
COMM_BSC            3906       0.003      12.658     0.83
POISON               989       0.571     564.600    37.21
fft                 1978       0.259     513.154    33.82
IterSCF              839       1.708    1432.872    94.44
setup_H              889       1.571    1396.258    92.03
DHSCF                939       1.521    1428.581    94.16
DHSCF3               939       1.504    1411.831    93.05
rhoofd               939       0.658     617.617    40.71
XC                   939       0.159     149.245     9.84
GXC-CellXC           939       0.156     146.336     9.65
cellXC               939       0.156     146.303     9.64
vmat                 939       0.025      23.903     1.58
compute_dm           839       0.043      36.031     2.37
diagon               839       0.043      35.738     2.36
r-eigvec             839       0.032      26.497     1.75
r-buildHS            839       0.000       0.027     0.00
rdiag                839       0.032      26.454     1.74
rdiag1               839       0.005       3.790     0.25
rdiag2               839       0.004       2.976     0.20
rdiag3               839       0.022      18.615     1.23
rdiag4               839       0.001       0.990     0.07
r-buildD             839       0.011       8.837     0.58
MIXER                789       0.000       0.160     0.01
PostSCF               50       0.695      34.757     2.29
DHSCF4                50       0.335      16.738     1.10
dfscf                 50       0.290      14.478     0.95
overfsm               50       0.002       0.114     0.01
state_analysis        50       0.000       0.013     0.00
siesta_move           50       0.001       0.027     0.00
Analysis               1       0.001       0.001     0.00
siesta_analysis        1       0.001       0.001     0.00
optical                1       0.000       0.000     0.00
  
>> End of run:  17-JUN-2023  23:27:55
Job completed
Job completed
