Siesta Version  : 4.1.5
Architecture    : unknown
Compiler version: GNU Fortran (GCC) 9.4.0
Compiler flags  : mpifort -march=nocona -mtune=haswell -ftree-vectorize -fPIC -fstack-protectorr-strong -fno-plt -O2 -ffunction-sections -pipe
PP flags        : -DFC_HAVE_ABORT -DCDF -DMPI -DSIESTA__MRRR -DNCDF -DNCDF_4
Libraries       : libncdf.a libfdict.a -lscalapack -llapack -lblas -lnetcdff -lnetcdf -lhdf5_hll -lhdf5 -lz
PARALLEL version
NetCDF support
NetCDF-4 support

* Running in serial mode with MPI
>> Start of run:  17-JUN-2023  20:10:43

                           ***********************       
                           *  WELCOME TO SIESTA  *       
                           ***********************       

reinit: Reading from standard input
reinit: Dumped input in INPUT_TMP.39263
************************** Dump of input data file ****************************
SystemName CH2+CN+NH2 reaction             # Descriptive name of the system
SystemLabel            CH2+CN+NH2          # Short name for naming files
# Species and atoms
NumberOfSpecies       3
NumberOfAtoms         8
%block ChemicalSpeciesLabel
  1   6   C
  2   1   H
  3   7   N
%endblock ChemicalSpeciesLabel
# Basis
%block PAO.BasisSizes
    C DZP
    N DZP
    H SZP
%endblock PAO.BasisSizes
LatticeConstant       1.0000 Ang
%block LatticeVectors
15.00000   0.000000  0.000000
 0.00000  15.000000  0.000000
 0.00000   0.000000 15.000000
%endblock LatticeVectors
%block kgrid_Monkhorst_Pack
   1  0  0  0.
   0  1  0  0.
   0  0  1  0.
%endblock Kgrid_Monkhorst_Pack
xc.functional         GGA           # Exchange-correlation functional
xc.authors            PBE           # Exchange-correlation version
#SpinPolarized         true          # Logical parameters are: yes or no
MeshCutoff           200. Ry        # Mesh cutoff. real space mesh
# SCF options
#SCFMustConvergence     true
MaxSCFIterations       150          # Maximum number of SCF iter
DM.MixingWeight       0.02          # New DM amount for next SCF cycle
DM.Tolerance          3.d-4         # Tolerance in maximum difference
                                    # between input and output DM
DM.NumberPulay          6           # to use continuation files
#DM.NumberBroyden       3
#DM.AllowExtrapolation  false
MD.UseSaveData           true
Diag.DivideAndConquer 	true
SolutionMethod        diagon        # OrderN or Diagon
ElectronicTemperature  25 meV       # Temp. for Fermi smearing
# -----------------------------
#  MD options
#  options for a basic MD run
# -----------------------------
# Options to Integrate Equations of motion
MD.TypeOfRun         verlet         # Standard Verlet algrithm
                                    # for Molecular Dynamics
MD.LengthTimeStep         1.0 fs    # time step integration
                                    # Newton eqs of motion
MD.Initial.Time.Step     1          #initial time step of MD
MD.FinalTimeStep         100        #Final time step of MD
# Initial Atomic coordinates and Velocity for MD run
MD.InitialTemperature     0 K       #Assign initial random velocity from
                                    # a Maxwell-Boltzmann distribution
                                    # for a given temperature
MD.UseSaveXV 		true            # use atomic Positions
                                    # and Velocities from
                                    # a saved XV file
AtomicCoordinatesFormat Ang         #Use Angstroms for atomic coordinates
%block AtomicCoordinatesAndAtomicSpecies
            0.0000    0.0000    0.0000 1 ! C 1
            0.0000    1.4100    0.0000 2 ! H 2
            0.0000   -1.4100    0.0000 2 ! H 3
            3.0000    0.0000    0.0000 3 ! N 4
            3.0000    1.0890    0.0000 2 ! H 5
            3.0000   -1.0890    0.0000 2 ! H 6
           -3.0000    0.0000    0.0000 1 ! C 7
           -4.4000    0.0000    0.0000 3 ! N 8
%endblock AtomicCoordinatesAndAtomicSpecies
#MD Output
WriteCoorXmol          true         #Save the final coordinates in .xyz format
WriteMDXmol            true         #Writes the coordinates
                                    #of all atoms at all steps
                                    #in a .ANI file
                                    #in xyz format
WriteMDhistory         true         #writes .MDE and .MD files
                                    # with output data from MD simulation
                                    # MDE contains: Temp, energy, volume, pressure
                                    # (human readable)
                                    # MD contains coords vel lattice vectors
                                    # (unformatted; post-process with iomd.f)
************************** End of input data file *****************************

reinit: -----------------------------------------------------------------------
reinit: System Name: CH2+CN+NH2 reaction
reinit: -----------------------------------------------------------------------
reinit: System Label: CH2+CN+NH2
reinit: -----------------------------------------------------------------------

initatom: Reading input for the pseudopotentials and atomic orbitals ----------
Species number:   1 Atomic number:    6 Label: C
Species number:   2 Atomic number:    1 Label: H
Species number:   3 Atomic number:    7 Label: N

Ground state valence configuration:   2s02  2p02
Reading pseudopotential information in formatted form from C.psf

Valence configuration for pseudopotential generation:
2s( 2.00) rc: 1.54
2p( 2.00) rc: 1.54
3d( 0.00) rc: 1.54
4f( 0.00) rc: 1.54
Ground state valence configuration:   1s01
Reading pseudopotential information in formatted form from H.psf

Valence configuration for pseudopotential generation:
1s( 1.00) rc: 1.31
2p( 0.00) rc: 1.31
3d( 0.00) rc: 0.37
4f( 0.00) rc: 1.31
Ground state valence configuration:   2s02  2p03
Reading pseudopotential information in formatted form from N.psf

Valence configuration for pseudopotential generation:
2s( 2.00) rc: 1.48
2p( 3.00) rc: 1.48
3d( 0.00) rc: 1.48
4f( 0.00) rc: 1.48
resizes: Read basis size for species C = dzp                 
resizes: Read basis size for species N = dzp                 
resizes: Read basis size for species H = szp                 
For C, standard SIESTA heuristics set lmxkb to 3
 (one more than the basis l, including polarization orbitals).
Use PS.lmax or PS.KBprojectors blocks to override.
For H, standard SIESTA heuristics set lmxkb to 2
 (one more than the basis l, including polarization orbitals).
Use PS.lmax or PS.KBprojectors blocks to override.
For N, standard SIESTA heuristics set lmxkb to 3
 (one more than the basis l, including polarization orbitals).
Use PS.lmax or PS.KBprojectors blocks to override.

<basis_specs>
===============================================================================
C                    Z=   6    Mass=  12.010        Charge= 0.17977+309
Lmxo=1 Lmxkb= 3    BasisType=split      Semic=F
L=0  Nsemic=0  Cnfigmx=2
          i=1  nzeta=2  polorb=0  (2s)
            splnorm:   0.15000    
               vcte:    0.0000    
               rinn:    0.0000    
               qcoe:    0.0000    
               qyuk:    0.0000    
               qwid:   0.10000E-01
                rcs:    0.0000      0.0000    
            lambdas:    1.0000      1.0000    
L=1  Nsemic=0  Cnfigmx=2
          i=1  nzeta=2  polorb=1  (2p)
            splnorm:   0.15000    
               vcte:    0.0000    
               rinn:    0.0000    
               qcoe:    0.0000    
               qyuk:    0.0000    
               qwid:   0.10000E-01
                rcs:    0.0000      0.0000    
            lambdas:    1.0000      1.0000    
-------------------------------------------------------------------------------
L=0  Nkbl=1  erefs: 0.17977+309
L=1  Nkbl=1  erefs: 0.17977+309
L=2  Nkbl=1  erefs: 0.17977+309
L=3  Nkbl=1  erefs: 0.17977+309
===============================================================================
</basis_specs>

atom: Called for C                     (Z =   6)

read_vps: Pseudopotential generation method:
read_vps: ATM3      Troullier-Martins                       
Valence charge for ps generation:    4.00000

read_vps: Pseudopotential includes a core correction:
read_vps: Pseudo-core for xc-correction

xc_check: Exchange-correlation functional:
xc_check: GGA Perdew, Burke & Ernzerhof 1996
V l=0 = -2*Zval/r beyond r=  1.5227
V l=1 = -2*Zval/r beyond r=  1.5227
V l=2 = -2*Zval/r beyond r=  1.5227
V l=3 = -2*Zval/r beyond r=  1.5038
All V_l potentials equal beyond r=  1.5227
This should be close to max(r_c) in ps generation
All pots = -2*Zval/r beyond r=  1.5227

VLOCAL1: 99.0% of the norm of Vloc inside     18.722 Ry
VLOCAL1: 99.9% of the norm of Vloc inside     42.668 Ry
atom: Maximum radius for 4*pi*r*r*local-pseudopot. charge    1.83678
atom: Maximum radius for r*vlocal+2*Zval:    1.58088
GHOST: No ghost state for L =  0
GHOST: No ghost state for L =  1
GHOST: No ghost state for L =  2
GHOST: No ghost state for L =  3

KBgen: Kleinman-Bylander projectors: 
   l= 0   rc=  1.704034   el= -1.009801   Ekb=  5.335044   kbcos=  0.316824
   l= 1   rc=  1.704034   el= -0.388707   Ekb= -3.785862   kbcos= -0.366464
   l= 2   rc=  1.791422   el=  0.001971   Ekb= -0.970471   kbcos= -0.009212
   l= 3   rc=  1.859892   el=  0.003065   Ekb= -0.399525   kbcos= -0.001223

KBgen: Total number of Kleinman-Bylander projectors:   16
atom: -------------------------------------------------------------------------

atom: SANKEY-TYPE ORBITALS:
atom: Selected multiple-zeta basis: split     

SPLIT: Orbitals with angular momentum L= 0

SPLIT: Basis orbitals for state 2s

SPLIT: PAO cut-off radius determined from an
SPLIT: energy shift=  0.020000 Ry

   izeta = 1
                 lambda =    1.000000
                     rc =    4.088342
                 energy =   -0.989105
                kinetic =    0.904439
    potential(screened) =   -1.893544
       potential(ionic) =   -5.484581

   izeta = 2
                 rmatch =    3.347176
              splitnorm =    0.150000
                 energy =   -0.835603
                kinetic =    1.364067
    potential(screened) =   -2.199670
       potential(ionic) =   -6.017020

SPLIT: Orbitals with angular momentum L= 1

SPLIT: Basis orbitals for state 2p

SPLIT: PAO cut-off radius determined from an
SPLIT: energy shift=  0.020000 Ry

   izeta = 1
                 lambda =    1.000000
                     rc =    4.870301
                 energy =   -0.368906
                kinetic =    2.520369
    potential(screened) =   -2.889275
       potential(ionic) =   -6.370528

   izeta = 2
                 rmatch =    3.475094
              splitnorm =    0.150000
                 energy =   -0.205913
                kinetic =    3.767535
    potential(screened) =   -3.973448
       potential(ionic) =   -7.809680

POLgen: Perturbative polarization orbital with L=  2

POLgen: Polarization orbital for state 2p

   izeta = 1
                     rc =    4.870301
                 energy =    1.296434
                kinetic =    2.645086
    potential(screened) =   -1.348652
       potential(ionic) =   -4.303965
atom: Total number of Sankey-type orbitals: 13

atm_pop: Valence configuration (for local Pseudopot. screening):
 2s( 2.00)                                                            
 2p( 2.00)                                                            
Vna: chval, zval:    4.00000   4.00000

Vna:  Cut-off radius for the neutral-atom potential:   4.870301
comcore: Pseudo-core radius Rcore=  1.791422

atom: _________________________________________________________________________

<basis_specs>
===============================================================================
H                    Z=   1    Mass=  1.0100        Charge= 0.17977+309
Lmxo=0 Lmxkb= 2    BasisType=split      Semic=F
L=0  Nsemic=0  Cnfigmx=1
          i=1  nzeta=1  polorb=1  (1s)
            splnorm:   0.15000    
               vcte:    0.0000    
               rinn:    0.0000    
               qcoe:    0.0000    
               qyuk:    0.0000    
               qwid:   0.10000E-01
                rcs:    0.0000    
            lambdas:    1.0000    
-------------------------------------------------------------------------------
L=0  Nkbl=1  erefs: 0.17977+309
L=1  Nkbl=1  erefs: 0.17977+309
L=2  Nkbl=1  erefs: 0.17977+309
===============================================================================
</basis_specs>

atom: Called for H                     (Z =   1)

read_vps: Pseudopotential generation method:
read_vps: ATM3      Troullier-Martins                       
Valence charge for ps generation:    1.00000

xc_check: Exchange-correlation functional:
xc_check: GGA Perdew, Burke & Ernzerhof 1996
V l=0 = -2*Zval/r beyond r=  1.2977
V l=1 = -2*Zval/r beyond r=  1.2815
V l=2 = -2*Zval/r beyond r=  1.2656
All V_l potentials equal beyond r=  1.2977
This should be close to max(r_c) in ps generation
All pots = -2*Zval/r beyond r=  1.2977

VLOCAL1: 99.0% of the norm of Vloc inside     25.776 Ry
VLOCAL1: 99.9% of the norm of Vloc inside     58.745 Ry
atom: Maximum radius for 4*pi*r*r*local-pseudopot. charge    1.52711
atom: Maximum radius for r*vlocal+2*Zval:    1.28155
GHOST: No ghost state for L =  0
GHOST: No ghost state for L =  1
GHOST: No ghost state for L =  2

KBgen: Kleinman-Bylander projectors: 
   l= 0   rc=  1.434438   el= -0.477200   Ekb= -1.957043   kbcos= -0.361614
   l= 1   rc=  1.508111   el=  0.001076   Ekb= -0.424224   kbcos= -0.025441
   l= 2   rc=  1.527112   el=  0.002010   Ekb= -0.378578   kbcos= -0.002010

KBgen: Total number of Kleinman-Bylander projectors:    9
atom: -------------------------------------------------------------------------

atom: SANKEY-TYPE ORBITALS:

SPLIT: Orbitals with angular momentum L= 0

SPLIT: Basis orbitals for state 1s

SPLIT: PAO cut-off radius determined from an
SPLIT: energy shift=  0.020000 Ry

   izeta = 1
                 lambda =    1.000000
                     rc =    4.708991
                 energy =   -0.457754
                kinetic =    0.977134
    potential(screened) =   -1.434888
       potential(ionic) =   -1.963073

POLgen: Perturbative polarization orbital with L=  1

POLgen: Polarization orbital for state 1s

   izeta = 1
                     rc =    4.708991
                 energy =    0.764959
                kinetic =    1.478379
    potential(screened) =   -0.713420
       potential(ionic) =   -1.205754
atom: Total number of Sankey-type orbitals:  4

atm_pop: Valence configuration (for local Pseudopot. screening):
 1s( 1.00)                                                            
Vna: chval, zval:    1.00000   1.00000

Vna:  Cut-off radius for the neutral-atom potential:   4.708991

atom: _________________________________________________________________________

<basis_specs>
===============================================================================
N                    Z=   7    Mass=  14.010        Charge= 0.17977+309
Lmxo=1 Lmxkb= 3    BasisType=split      Semic=F
L=0  Nsemic=0  Cnfigmx=2
          i=1  nzeta=2  polorb=0  (2s)
            splnorm:   0.15000    
               vcte:    0.0000    
               rinn:    0.0000    
               qcoe:    0.0000    
               qyuk:    0.0000    
               qwid:   0.10000E-01
                rcs:    0.0000      0.0000    
            lambdas:    1.0000      1.0000    
L=1  Nsemic=0  Cnfigmx=2
          i=1  nzeta=2  polorb=1  (2p)
            splnorm:   0.15000    
               vcte:    0.0000    
               rinn:    0.0000    
               qcoe:    0.0000    
               qyuk:    0.0000    
               qwid:   0.10000E-01
                rcs:    0.0000      0.0000    
            lambdas:    1.0000      1.0000    
-------------------------------------------------------------------------------
L=0  Nkbl=1  erefs: 0.17977+309
L=1  Nkbl=1  erefs: 0.17977+309
L=2  Nkbl=1  erefs: 0.17977+309
L=3  Nkbl=1  erefs: 0.17977+309
===============================================================================
</basis_specs>

atom: Called for N                     (Z =   7)

read_vps: Pseudopotential generation method:
read_vps: ATM3      Troullier-Martins                       
Valence charge for ps generation:    5.00000

read_vps: Pseudopotential includes a core correction:
read_vps: Pseudo-core for xc-correction

xc_check: Exchange-correlation functional:
xc_check: GGA Perdew, Burke & Ernzerhof 1996
V l=0 = -2*Zval/r beyond r=  1.4606
V l=1 = -2*Zval/r beyond r=  1.4606
V l=2 = -2*Zval/r beyond r=  1.4606
V l=3 = -2*Zval/r beyond r=  1.4606
All V_l potentials equal beyond r=  1.4606
This should be close to max(r_c) in ps generation
All pots = -2*Zval/r beyond r=  1.4606

VLOCAL1: 99.0% of the norm of Vloc inside     20.347 Ry
VLOCAL1: 99.9% of the norm of Vloc inside     46.372 Ry
atom: Maximum radius for 4*pi*r*r*local-pseudopot. charge    1.76189
atom: Maximum radius for r*vlocal+2*Zval:    1.53550
GHOST: No ghost state for L =  0
GHOST: No ghost state for L =  1
GHOST: No ghost state for L =  2
GHOST: No ghost state for L =  3

KBgen: Kleinman-Bylander projectors: 
   l= 0   rc=  1.634559   el= -1.363963   Ekb=  5.296955   kbcos=  0.335621
   l= 1   rc=  1.614250   el= -0.521451   Ekb= -5.259161   kbcos= -0.433408
   l= 2   rc=  1.718383   el=  0.001991   Ekb= -1.271464   kbcos= -0.007566
   l= 3   rc=  1.761893   el=  0.003093   Ekb= -0.494769   kbcos= -0.001015

KBgen: Total number of Kleinman-Bylander projectors:   16
atom: -------------------------------------------------------------------------

atom: SANKEY-TYPE ORBITALS:
atom: Selected multiple-zeta basis: split     

SPLIT: Orbitals with angular momentum L= 0

SPLIT: Basis orbitals for state 2s

SPLIT: PAO cut-off radius determined from an
SPLIT: energy shift=  0.020000 Ry

   izeta = 1
                 lambda =    1.000000
                     rc =    3.683980
                 energy =   -1.346493
                kinetic =    1.217702
    potential(screened) =   -2.564196
       potential(ionic) =   -8.121417

   izeta = 2
                 rmatch =    2.869008
              splitnorm =    0.150000
                 energy =   -1.143688
                kinetic =    1.842239
    potential(screened) =   -2.985927
       potential(ionic) =   -8.929748

SPLIT: Orbitals with angular momentum L= 1

SPLIT: Basis orbitals for state 2p

SPLIT: PAO cut-off radius determined from an
SPLIT: energy shift=  0.020000 Ry

   izeta = 1
                 lambda =    1.000000
                     rc =    4.280232
                 energy =   -0.501066
                kinetic =    3.581781
    potential(screened) =   -4.082847
       potential(ionic) =   -9.491389

   izeta = 2
                 rmatch =    2.905100
              splitnorm =    0.150000
                 energy =   -0.269325
                kinetic =    5.375034
    potential(screened) =   -5.644358
       potential(ionic) =  -11.640447

POLgen: Perturbative polarization orbital with L=  2

POLgen: Polarization orbital for state 2p

   izeta = 1
                     rc =    4.280232
                 energy =    1.846098
                kinetic =    3.706851
    potential(screened) =   -1.860753
       potential(ionic) =   -6.377604
atom: Total number of Sankey-type orbitals: 13

atm_pop: Valence configuration (for local Pseudopot. screening):
 2s( 2.00)                                                            
 2p( 3.00)                                                            
Vna: chval, zval:    5.00000   5.00000

Vna:  Cut-off radius for the neutral-atom potential:   4.280232
comcore: Pseudo-core radius Rcore=  1.554824

atom: _________________________________________________________________________

prinput: Basis input ----------------------------------------------------------

PAO.BasisType split     

%block ChemicalSpeciesLabel
    1    6 C                       # Species index, atomic number, species label
    2    1 H                       # Species index, atomic number, species label
    3    7 N                       # Species index, atomic number, species label
%endblock ChemicalSpeciesLabel

%block PAO.Basis                 # Define Basis set
C                     2                    # Species label, number of l-shells
 n=2   0   2                         # n, l, Nzeta 
   4.088      3.347   
   1.000      1.000   
 n=2   1   2 P   1                   # n, l, Nzeta, Polarization, NzetaPol
   4.870      3.475   
   1.000      1.000   
H                     1                    # Species label, number of l-shells
 n=1   0   1 P   1                   # n, l, Nzeta, Polarization, NzetaPol
   4.709   
   1.000   
N                     2                    # Species label, number of l-shells
 n=2   0   2                         # n, l, Nzeta 
   3.684      2.869   
   1.000      1.000   
 n=2   1   2 P   1                   # n, l, Nzeta, Polarization, NzetaPol
   4.280      2.905   
   1.000      1.000   
%endblock PAO.Basis

prinput: ----------------------------------------------------------------------

Dumping basis to NetCDF file C.ion.nc
Dumping basis to NetCDF file H.ion.nc
Dumping basis to NetCDF file N.ion.nc
coor:   Atomic-coordinates input format  =     Cartesian coordinates
coor:                                          (in Angstroms)

ioxv: Reading coordinates and velocities from file
! Info in XV file prevails over previous structure input
WARNING: CH2+CN+NH2.VERLET_RESTART not found--reading only XV file and moving back 1 time step using Euler

siesta: Atomic coordinates (Bohr) and species
siesta:      0.00000   0.00000   0.00000  1        1
siesta:      0.00000  -1.00000   2.66000  2        2
siesta:      0.00000  -1.00000  -2.66000  2        3
siesta:      3.00000   0.50000   0.00000  3        4
siesta:      3.00000   1.50000  -2.66000  2        5
siesta:      3.00000   1.50000   2.66000  2        6
siesta:     -3.00000   2.00000   0.00000  1        7
siesta:     -5.40000   4.00000   0.00000  3        8

siesta: System type = chain     

initatomlists: Number of atoms, orbitals, and projectors:      8    68   100

coxmol: Writing XMOL coordinates into file CH2+CN+NH2.xyz                                                      

siesta: ******************** Simulation parameters ****************************
siesta:
siesta: The following are some of the parameters of the simulation.
siesta: A complete list of the parameters used, including default values,
siesta: can be found in file out.fdf
siesta:
redata: Spin configuration                          = none
redata: Number of spin components                   = 1
redata: Time-Reversal Symmetry                      = T
redata: Spin spiral                                 = F
redata: Long output                                 =   F
redata: Number of Atomic Species                    =        3
redata: Charge density info will appear in .RHO file
redata: Write Mulliken Pop.                         = NO
redata: Matel table size (NRTAB)                    =     1024
redata: Mesh Cutoff                                 =   200.0000 Ry
redata: Net charge of the system                    =     0.0000 |e|
redata: Min. number of SCF Iter                     =        0
redata: Max. number of SCF Iter                     =      150
redata: SCF convergence failure will abort job
redata: SCF mix quantity                            = Hamiltonian
redata: Mix DM or H after convergence               =   F
redata: Recompute H after scf cycle                 =   F
redata: Mix DM in first SCF step                    =   T
redata: Write Pulay info on disk                    =   F
redata: New DM Occupancy tolerance                  = 0.000000000001
redata: No kicks to SCF
redata: DM Mixing Weight for Kicks                  =     0.5000
redata: Require Harris convergence for SCF          =   F
redata: Harris energy tolerance for SCF             =     0.000100 eV
redata: Require DM convergence for SCF              =   T
redata: DM tolerance for SCF                        =     0.000300
redata: Require EDM convergence for SCF             =   F
redata: EDM tolerance for SCF                       =     0.001000 eV
redata: Require H convergence for SCF               =   T
redata: Hamiltonian tolerance for SCF               =     0.001000 eV
redata: Require (free) Energy convergence for SCF   =   F
redata: (free) Energy tolerance for SCF             =     0.000100 eV
redata: Using Saved Data (generic)                  =   F
redata: Use continuation files for DM               =   F
redata: Neglect nonoverlap interactions             =   F
redata: Method of Calculation                       = Diagonalization
redata: Electronic Temperature                      =   290.1109 K
redata: Fix the spin of the system                  =   F
redata: Dynamics option                             = Verlet MD run
redata: Initial MD time step                        =        1
redata:   Final MD time step                        =      100
redata: Length of MD time step                      =     1.0000 fs
redata: Initial Temperature of MD run               =     0.0000 K
redata: Perform a MD quench                         =   F
mix.SCF: Pulay mixing                            = Pulay
mix.SCF:    Variant                              = stable
mix.SCF:    History steps                        = 6
mix.SCF:    Linear mixing weight                 =     0.020000
mix.SCF:    Mixing weight                        =     0.020000
mix.SCF:    SVD condition                        = 0.1000E-07
redata: Save all siesta data in one NC              =   F
redata: ***********************************************************************

%block SCF.Mixers
  Pulay
%endblock SCF.Mixers

%block SCF.Mixer.Pulay
  # Mixing method
  method pulay
  variant stable

  # Mixing options
  weight 0.0200
  weight.linear 0.0200
  history 6
%endblock SCF.Mixer.Pulay

Size of DM history Fstack: 1
Total number of electrons:    22.000000
Total ionic charge:    22.000000

* ProcessorY, Blocksize:    1  24


* Orbital distribution balance (max,min):    68    68

 Kpoints in:            1 . Kpoints trimmed:            1

siesta: k-grid: Number of k-points =     1
siesta: k-grid: Cutoff (effective) =     3.969 Ang
siesta: k-grid: Supercell and displacements
siesta: k-grid:    1   0   0      0.000
siesta: k-grid:    0   1   0      0.000
siesta: k-grid:    0   0   1      0.000

diag: Algorithm                                     = D&C
diag: Parallel over k                               =   F
diag: Use parallel 2D distribution                  =   F
diag: Parallel block-size                           = 24
diag: Parallel distribution                         =     1 x     1
diag: Used triangular part                          = Lower
diag: Absolute tolerance                            =  0.100E-15
diag: Orthogonalization factor                      =  0.100E-05
diag: Memory factor                                 =  1.0000


ts: **************************************************************
ts: Save H and S matrices                           =    F
ts: Save DM and EDM matrices                        =    F
ts: Only save the overlap matrix S                  =    F
ts: **************************************************************

************************ Begin: TS CHECKS AND WARNINGS ************************
************************ End: TS CHECKS AND WARNINGS **************************


                     ====================================
                        Begin MD step =      1
                     ====================================

outcell: Unit cell vectors (Ang):
        7.937655    0.000000    0.000000
        0.000000    7.937655    0.000000
        0.000000    0.000000    7.937655

outcell: Cell vector modules (Ang)   :    7.937655    7.937655    7.937655
outcell: Cell angles (23,13,12) (deg):     90.0000     90.0000     90.0000
outcell: Cell volume (Ang**3)        :    500.1228
Gamma-point calculation with multiply-connected orbital pairs
Gamma-point calculation with multiply-connected orbital pairs
Folding of H and S implicitly performed
Folding of H and S implicitly performed
<dSpData1D:S at geom step 1
  <sparsity:sparsity for geom step 1
    nrows_g=68 nrows=68 sparsity=.9615 nnzs=4446, refcount: 7>
  <dData1D:(new from dSpData1D) n=4446, refcount: 1>
refcount: 1>
new_DM -- step:     1
Initializing Density Matrix...
DM filled with atomic data:
<dSpData2D:DM initialized from atoms
  <sparsity:sparsity for geom step 1
    nrows_g=68 nrows=68 sparsity=.9615 nnzs=4446, refcount: 8>
  <dData2D:DM n=4446 m=1, refcount: 1>
refcount: 1>
No. of atoms with KB's overlaping orbs in proc 0. Max # of overlaps:       8      55
New grid distribution:   1
           1       1:   36    1:   36    1:   36

InitMesh: MESH =    72 x    72 x    72 =      373248
InitMesh: (bp) =    36 x    36 x    36 =       46656
InitMesh: Mesh cutoff (required, used) =   200.000   227.396 Ry
ExtMesh (bp) on 0 =    84 x    84 x    84 =      592704
PhiOnMesh: Number of (b)points on node 0 =                46656
PhiOnMesh: nlist on node 0 =               355669

stepf: Fermi-Dirac step function

siesta: Program's energy decomposition (eV):
siesta: Ebs     =      -238.748176
siesta: Eions   =      1418.860585
siesta: Ena     =       262.183640
siesta: Ekin    =       569.324789
siesta: Enl     =       -79.436501
siesta: Eso     =         0.000000
siesta: Edftu   =         0.000000
siesta: DEna    =        18.425202
siesta: DUscf   =         4.705740
siesta: DUext   =         0.000000
siesta: Exc     =      -285.183771
siesta: eta*DQ  =         0.000000
siesta: Emadel  =         0.000000
siesta: Emeta   =         0.000000
siesta: Emolmec =         0.000000
siesta: Ekinion =         0.000000
siesta: Eharris =      -941.373811
siesta: Etot    =      -928.841486
siesta: FreeEng =      -928.841486

        iscf     Eharris(eV)        E_KS(eV)     FreeEng(eV)     dDmax    Ef(eV) dHmax(eV)
   scf:    1     -941.373811     -928.841486     -928.841486  1.678555 -4.259818  6.500337
timer: Routine,Calls,Time,% = IterSCF        1       2.035  23.11
   scf:    2     -930.406577     -929.663019     -929.663019  0.038812 -4.303006  5.198452
   scf:    3     -930.680949     -931.188837     -931.188837  0.210821 -4.528096  1.367696
   scf:    4     -920.311476     -927.880546     -927.880546  0.279751 -4.551772  8.290909
   scf:    5     -932.450662     -931.358736     -931.358736  0.210784 -4.791745  1.094336
   scf:    6     -931.052734     -931.223849     -931.223849  0.024178 -4.760118  1.965718
   scf:    7     -931.460008     -931.458541     -931.458541  0.095216 -4.893628  0.184239
   scf:    8     -931.459693     -931.459141     -931.459141  0.000916 -4.893304  0.160060
   scf:    9     -931.452937     -931.459804     -931.459804  0.013367 -4.877856  0.252993
   scf:   10     -931.451792     -931.456169     -931.456169  0.003665 -4.872558  0.375300
   scf:   11     -931.462179     -931.462777     -931.462777  0.014957 -4.873267  0.029479
   scf:   12     -931.462837     -931.462837     -931.462837  0.001161 -4.872068  0.016146
   scf:   13     -931.462843     -931.462840     -931.462840  0.000197 -4.870176  0.015069
   scf:   14     -931.462850     -931.462846     -931.462846  0.000190 -4.869089  0.013809
   scf:   15     -931.462869     -931.462863     -931.462863  0.000860 -4.865581  0.005565
   scf:   16     -931.462865     -931.462864     -931.462864  0.000112 -4.865419  0.005642
   scf:   17     -931.462877     -931.462871     -931.462871  0.000629 -4.865003  0.002248
   scf:   18     -931.462872     -931.462872     -931.462872  0.000018 -4.864938  0.002119
   scf:   19     -931.462872     -931.462872     -931.462872  0.000102 -4.864315  0.000797

SCF Convergence by DM+H criterion
max |DM_out - DM_in|         :     0.0001015474
max |H_out - H_in|      (eV) :     0.0007969273
SCF cycle converged after 19 iterations

Using DM_out to compute the final energy and forces
No. of atoms with KB's overlaping orbs in proc 0. Max # of overlaps:       8      55

siesta: E_KS(eV) =             -931.4629

siesta: E_KS - E_eggbox =      -931.4629

siesta: Atomic forces (eV/Ang):
----------------------------------------
   Tot    0.047220    0.017871    0.000000
----------------------------------------
   Max    9.625915
   Res    3.759288    sqrt( Sum f_i^2 / 3N )
----------------------------------------
   Max    9.625915    constrained

Stress tensor Voigt[x,y,z,yz,xz,xy] (kbar):       77.86       37.05       75.28       -0.00        0.00      -45.10
(Free)E + p*V (eV/cell)     -951.2525
Target enthalpy (eV/cell)     -931.4629

siesta: Stress tensor (static) (eV/Ang**3):
         0.048596   -0.028148    0.000000
        -0.028148    0.023125   -0.000000
         0.000000   -0.000000    0.046988

siesta: Pressure (static):        -63.39794024  kBar

siesta: Stress tensor (total) (eV/Ang**3):
         0.048596   -0.028148    0.000000
        -0.028148    0.023125   -0.000000
         0.000000   -0.000000    0.046988

siesta: Pressure (total):        -63.39794024  kBar

siesta: Temp_ion =       0.000 K

                     ====================================
                        Begin MD step =      2
                     ====================================

outcell: Unit cell vectors (Ang):
        7.937655    0.000000    0.000000
        0.000000    7.937655    0.000000
        0.000000    0.000000    7.937655

outcell: Cell vector modules (Ang)   :    7.937655    7.937655    7.937655
outcell: Cell angles (23,13,12) (deg):     90.0000     90.0000     90.0000
outcell: Cell volume (Ang**3)        :    500.1228
Gamma-point calculation with multiply-connected orbital pairs
Gamma-point calculation with multiply-connected orbital pairs
Folding of H and S implicitly performed
Folding of H and S implicitly performed
<dSpData1D:S at geom step 2
  <sparsity:sparsity for geom step 2
    nrows_g=68 nrows=68 sparsity=.9615 nnzs=4446, refcount: 7>
  <dData1D:(new from dSpData1D) n=4446, refcount: 1>
refcount: 1>
new_DM -- step:     2
Re-using DM from previous geometries...
Number of DMs in history: 1
 DM extrapolation coefficients: 
1   1.00000
New DM after history re-use:
<dSpData2D:SpM extrapolated using coords
  <sparsity:sparsity for geom step 2
    nrows_g=68 nrows=68 sparsity=.9615 nnzs=4446, refcount: 9>
  <dData2D:(temp array for extrapolation) n=4446 m=1, refcount: 1>
refcount: 1>
Note: For starting DM, Qtot, Tr[D*S] =         22.00000000         22.05517750
No. of atoms with KB's overlaping orbs in proc 0. Max # of overlaps:       8      55
New grid distribution:   1
           1       1:   36    1:   36    1:   36

InitMesh: MESH =    72 x    72 x    72 =      373248
InitMesh: (bp) =    36 x    36 x    36 =       46656
InitMesh: Mesh cutoff (required, used) =   200.000   227.396 Ry
ExtMesh (bp) on 0 =    84 x    84 x    84 =      592704
PhiOnMesh: Number of (b)points on node 0 =                46656
PhiOnMesh: nlist on node 0 =               355590

        iscf     Eharris(eV)        E_KS(eV)     FreeEng(eV)     dDmax    Ef(eV) dHmax(eV)
   scf:    1     -931.696104     -931.892206     -931.892206  0.034691 -4.919132  0.721583
   scf:    2     -929.242069     -931.044793     -931.044793  0.141385 -4.513045  4.621454
   scf:    3     -932.004127     -931.903910     -931.903910  0.126110 -4.916349  0.313210
   scf:    4     -931.906978     -931.906778     -931.906778  0.008577 -4.904732  0.123389
   scf:    5     -931.906905     -931.907424     -931.907424  0.004823 -4.905683  0.061602
   scf:    6     -931.907599     -931.907645     -931.907645  0.002139 -4.909176  0.031137
   scf:    7     -931.907505     -931.907611     -931.907611  0.001108 -4.909394  0.043564
   scf:    8     -931.907704     -931.907694     -931.907694  0.001190 -4.906941  0.012055
   scf:    9     -931.907703     -931.907700     -931.907700  0.000204 -4.908148  0.005537
   scf:   10     -931.907702     -931.907701     -931.907701  0.000135 -4.907996  0.000690

SCF Convergence by DM+H criterion
max |DM_out - DM_in|         :     0.0001348168
max |H_out - H_in|      (eV) :     0.0006895093
SCF cycle converged after 10 iterations

Using DM_out to compute the final energy and forces
No. of atoms with KB's overlaping orbs in proc 0. Max # of overlaps:       8      55

siesta: E_KS(eV) =             -931.9077

siesta: Atomic forces (eV/Ang):
----------------------------------------
   Tot    0.046731    0.023991   -0.000000
----------------------------------------
   Max    9.693995
   Res    3.795371    sqrt( Sum f_i^2 / 3N )
----------------------------------------
   Max    9.693995    constrained

Stress tensor Voigt[x,y,z,yz,xz,xy] (kbar):       77.21       36.76       75.23       -0.00       -0.00      -45.27
(Free)E + p*V (eV/cell)     -951.5938
Target enthalpy (eV/cell)     -931.9077

siesta: Stress tensor (static) (eV/Ang**3):
         0.048191   -0.028253   -0.000000
        -0.028253    0.022945    0.000000
        -0.000000   -0.000000    0.046952

siesta: Pressure (static):        -63.06640600  kBar

siesta: Stress tensor (total) (eV/Ang**3):
         0.048191   -0.028253   -0.000000
        -0.028253    0.022945    0.000000
        -0.000000   -0.000000    0.046952

siesta: Pressure (total):        -63.06640600  kBar

siesta: Temp_ion =     494.618 K

                     ====================================
                        Begin MD step =      3
                     ====================================

outcell: Unit cell vectors (Ang):
        7.937655    0.000000    0.000000
        0.000000    7.937655    0.000000
        0.000000    0.000000    7.937655

outcell: Cell vector modules (Ang)   :    7.937655    7.937655    7.937655
outcell: Cell angles (23,13,12) (deg):     90.0000     90.0000     90.0000
outcell: Cell volume (Ang**3)        :    500.1228
Gamma-point calculation with multiply-connected orbital pairs
Gamma-point calculation with multiply-connected orbital pairs
Folding of H and S implicitly performed
Folding of H and S implicitly performed
<dSpData1D:S at geom step 3
  <sparsity:sparsity for geom step 3
    nrows_g=68 nrows=68 sparsity=.9615 nnzs=4446, refcount: 7>
  <dData1D:(new from dSpData1D) n=4446, refcount: 1>
refcount: 1>
new_DM -- step:     3
Re-using DM from previous geometries...
Number of DMs in history: 1
 DM extrapolation coefficients: 
1   1.00000
New DM after history re-use:
<dSpData2D:SpM extrapolated using coords
  <sparsity:sparsity for geom step 3
    nrows_g=68 nrows=68 sparsity=.9615 nnzs=4446, refcount: 9>
  <dData2D:(temp array for extrapolation) n=4446 m=1, refcount: 1>
refcount: 1>
Note: For starting DM, Qtot, Tr[D*S] =         22.00000000         22.16846081
No. of atoms with KB's overlaping orbs in proc 0. Max # of overlaps:       8      55
New grid distribution:   1
           1       1:   36    1:   36    1:   36

InitMesh: MESH =    72 x    72 x    72 =      373248
InitMesh: (bp) =    36 x    36 x    36 =       46656
InitMesh: Mesh cutoff (required, used) =   200.000   227.396 Ry
ExtMesh (bp) on 0 =    84 x    84 x    84 =      592704
PhiOnMesh: Number of (b)points on node 0 =                46656
PhiOnMesh: nlist on node 0 =               355446

        iscf     Eharris(eV)        E_KS(eV)     FreeEng(eV)     dDmax    Ef(eV) dHmax(eV)
   scf:    1     -932.385261     -933.163088     -933.163088  0.104701 -5.088538  2.019889
   scf:    2     -915.309771     -927.465913     -927.465913  0.386544 -4.116172 12.024399
   scf:    3     -933.966550     -933.248848     -933.248848  0.343577 -5.086609  0.896614
   scf:    4     -933.264023     -933.266345     -933.266345  0.019539 -4.276671  0.481137
   scf:    5     -933.278054     -933.276920     -933.276920  0.013321 -4.273508  0.099743
   scf:    6     -933.278389     -933.277951     -933.277951  0.003207 -4.274352  0.080251
   scf:    7     -933.277571     -933.277972     -933.277972  0.003119 -4.276201  0.059830
   scf:    8     -933.278440     -933.278296     -933.278296  0.001973 -4.270467  0.017985
   scf:    9     -933.278240     -933.278279     -933.278279  0.000730 -4.270449  0.022256
   scf:   10     -933.278325     -933.278313     -933.278313  0.000632 -4.273962  0.001978
   scf:   11     -933.278313     -933.278313     -933.278313  0.000013 -4.273992  0.001867
   scf:   12     -933.278315     -933.278314     -933.278314  0.000177 -4.274215  0.000794

SCF Convergence by DM+H criterion
max |DM_out - DM_in|         :     0.0001770705
max |H_out - H_in|      (eV) :     0.0007938065
SCF cycle converged after 12 iterations

Using DM_out to compute the final energy and forces
No. of atoms with KB's overlaping orbs in proc 0. Max # of overlaps:       8      55

siesta: E_KS(eV) =             -933.2783

siesta: Atomic forces (eV/Ang):
----------------------------------------
   Tot    0.057027    0.019329   -0.000000
----------------------------------------
   Max    9.869636
   Res    3.882876    sqrt( Sum f_i^2 / 3N )
----------------------------------------
   Max    9.869636    constrained

Stress tensor Voigt[x,y,z,yz,xz,xy] (kbar):       74.76       35.49       71.41       -0.00        0.00      -45.28
(Free)E + p*V (eV/cell)     -952.1809
Target enthalpy (eV/cell)     -933.2783

siesta: Stress tensor (static) (eV/Ang**3):
         0.046926   -0.028471   -0.000000
        -0.028471    0.022337   -0.000000
         0.000000   -0.000000    0.045901

siesta: Pressure (static):        -61.50536723  kBar

siesta: Stress tensor (total) (eV/Ang**3):
         0.046664   -0.028261   -0.000000
        -0.028261    0.022153   -0.000000
         0.000000   -0.000000    0.044571

siesta: Pressure (total):        -60.55647013  kBar

siesta: Temp_ion =    2014.067 K

                     ====================================
                        Begin MD step =      4
                     ====================================

outcell: Unit cell vectors (Ang):
        7.937655    0.000000    0.000000
        0.000000    7.937655    0.000000
        0.000000    0.000000    7.937655

outcell: Cell vector modules (Ang)   :    7.937655    7.937655    7.937655
outcell: Cell angles (23,13,12) (deg):     90.0000     90.0000     90.0000
outcell: Cell volume (Ang**3)        :    500.1228
Gamma-point calculation with multiply-connected orbital pairs
Gamma-point calculation with multiply-connected orbital pairs
Folding of H and S implicitly performed
Folding of H and S implicitly performed
<dSpData1D:S at geom step 4
  <sparsity:sparsity for geom step 4
    nrows_g=68 nrows=68 sparsity=.9615 nnzs=4446, refcount: 7>
  <dData1D:(new from dSpData1D) n=4446, refcount: 1>
refcount: 1>
new_DM -- step:     4
Re-using DM from previous geometries...
Number of DMs in history: 1
 DM extrapolation coefficients: 
1   1.00000
New DM after history re-use:
<dSpData2D:SpM extrapolated using coords
  <sparsity:sparsity for geom step 4
    nrows_g=68 nrows=68 sparsity=.9615 nnzs=4446, refcount: 9>
  <dData2D:(temp array for extrapolation) n=4446 m=1, refcount: 1>
refcount: 1>
Note: For starting DM, Qtot, Tr[D*S] =         22.00000000         22.28986548
No. of atoms with KB's overlaping orbs in proc 0. Max # of overlaps:       8      55
New grid distribution:   1
           1       1:   36    1:   36    1:   36

InitMesh: MESH =    72 x    72 x    72 =      373248
InitMesh: (bp) =    36 x    36 x    36 =       46656
InitMesh: Mesh cutoff (required, used) =   200.000   227.396 Ry
ExtMesh (bp) on 0 =    84 x    84 x    84 =      592704
PhiOnMesh: Number of (b)points on node 0 =                46656
PhiOnMesh: nlist on node 0 =               355482

        iscf     Eharris(eV)        E_KS(eV)     FreeEng(eV)     dDmax    Ef(eV) dHmax(eV)
   scf:    1     -933.843282     -935.381321     -935.381321  0.160894 -5.396960  3.030954
   scf:    2     -904.623540     -925.621673     -925.621673  0.536357 -3.610969 15.901930
   scf:    3     -936.988877     -935.561703     -935.561703  0.469856 -3.851747  1.364042
   scf:    4     -935.619658     -935.603567     -935.603567  0.019880 -3.837467  0.472611
   scf:    5     -935.620359     -935.619841     -935.619841  0.020979 -3.822361  0.267687
   scf:    6     -935.626502     -935.624405     -935.624405  0.003615 -3.783729  0.061417
   scf:    7     -935.623574     -935.624208     -935.624208  0.001969 -3.776449  0.088441
   scf:    8     -935.625055     -935.624759     -935.624759  0.001203 -3.787774  0.023649
   scf:    9     -935.624741     -935.624770     -935.624770  0.000694 -3.792006  0.015723
   scf:   10     -935.624797     -935.624792     -935.624792  0.000533 -3.790779  0.002665
   scf:   11     -935.624792     -935.624792     -935.624792  0.000024 -3.790737  0.002601
   scf:   12     -935.624796     -935.624794     -935.624794  0.000319 -3.791308  0.000654
   scf:   13     -935.624794     -935.624794     -935.624794  0.000003 -3.791301  0.000642

SCF Convergence by DM+H criterion
max |DM_out - DM_in|         :     0.0000030017
max |H_out - H_in|      (eV) :     0.0006423424
SCF cycle converged after 13 iterations

Using DM_out to compute the final energy and forces
No. of atoms with KB's overlaping orbs in proc 0. Max # of overlaps:       8      55

siesta: E_KS(eV) =             -935.6248

siesta: Atomic forces (eV/Ang):
----------------------------------------
   Tot    0.028090    0.007362   -0.000000
----------------------------------------
   Max   10.084103
   Res    3.968923    sqrt( Sum f_i^2 / 3N )
----------------------------------------
   Max   10.084103    constrained

Stress tensor Voigt[x,y,z,yz,xz,xy] (kbar):       70.28       32.93       58.02       -0.00        0.00      -44.39
(Free)E + p*V (eV/cell)     -952.4006
Target enthalpy (eV/cell)     -935.6248

siesta: Stress tensor (static) (eV/Ang**3):
         0.044933   -0.028563    0.000000
        -0.028563    0.021297   -0.000000
         0.000000   -0.000000    0.041635

siesta: Pressure (static):        -57.60674802  kBar

siesta: Stress tensor (total) (eV/Ang**3):
         0.043865   -0.027708   -0.000000
        -0.027708    0.020551   -0.000000
         0.000000   -0.000000    0.036214

siesta: Pressure (total):        -53.74287273  kBar

siesta: Temp_ion =    4587.942 K

                     ====================================
                        Begin MD step =      5
                     ====================================

outcell: Unit cell vectors (Ang):
        7.937655    0.000000    0.000000
        0.000000    7.937655    0.000000
        0.000000    0.000000    7.937655

outcell: Cell vector modules (Ang)   :    7.937655    7.937655    7.937655
outcell: Cell angles (23,13,12) (deg):     90.0000     90.0000     90.0000
outcell: Cell volume (Ang**3)        :    500.1228
Gamma-point calculation with multiply-connected orbital pairs
Gamma-point calculation with multiply-connected orbital pairs
Folding of H and S implicitly performed
Folding of H and S implicitly performed
<dSpData1D:S at geom step 5
  <sparsity:sparsity for geom step 5
    nrows_g=68 nrows=68 sparsity=.9615 nnzs=4446, refcount: 7>
  <dData1D:(new from dSpData1D) n=4446, refcount: 1>
refcount: 1>
new_DM -- step:     5
Re-using DM from previous geometries...
Number of DMs in history: 1
 DM extrapolation coefficients: 
1   1.00000
New DM after history re-use:
<dSpData2D:SpM extrapolated using coords
  <sparsity:sparsity for geom step 5
    nrows_g=68 nrows=68 sparsity=.9615 nnzs=4446, refcount: 9>
  <dData2D:(temp array for extrapolation) n=4446 m=1, refcount: 1>
refcount: 1>
Note: For starting DM, Qtot, Tr[D*S] =         22.00000000         22.41012361
No. of atoms with KB's overlaping orbs in proc 0. Max # of overlaps:       8      55
New grid distribution:   1
           1       1:   36    1:   36    1:   36

InitMesh: MESH =    72 x    72 x    72 =      373248
InitMesh: (bp) =    36 x    36 x    36 =       46656
InitMesh: Mesh cutoff (required, used) =   200.000   227.396 Ry
ExtMesh (bp) on 0 =    84 x    84 x    84 =      592704
PhiOnMesh: Number of (b)points on node 0 =                46656
PhiOnMesh: nlist on node 0 =               355433

        iscf     Eharris(eV)        E_KS(eV)     FreeEng(eV)     dDmax    Ef(eV) dHmax(eV)
   scf:    1     -936.002694     -938.343102     -938.343102  0.169673 -4.311145  3.502599
   scf:    2     -908.234782     -928.887035     -928.887035  0.553007 -3.174213 16.026173
   scf:    3     -940.171097     -938.590590     -938.590590  0.474705 -4.384380  1.522140
   scf:    4     -938.616490     -938.619329     -938.619329  0.026376 -4.408166  0.720919
   scf:    5     -938.667987     -938.659045     -938.659045  0.028585 -4.389309  0.455333
   scf:    6     -938.671406     -938.666975     -938.666975  0.007541 -4.299900  0.213523
   scf:    7     -938.668117     -938.667581     -938.667581  0.001423 -4.298471  0.157771
   scf:    8     -938.668907     -938.668671     -938.668671  0.003492 -4.287757  0.035278
   scf:    9     -938.668610     -938.668671     -938.668671  0.001100 -4.293086  0.038361
   scf:   10     -938.668762     -938.668744     -938.668744  0.000695 -4.294603  0.003107
   scf:   11     -938.668745     -938.668744     -938.668744  0.000062 -4.294604  0.002812
   scf:   12     -938.668745     -938.668745     -938.668745  0.000026 -4.294664  0.002792
   scf:   13     -938.668746     -938.668745     -938.668745  0.000077 -4.294730  0.002976
   scf:   14     -938.668747     -938.668746     -938.668746  0.000075 -4.294685  0.002823
   scf:   15     -938.668746     -938.668746     -938.668746  0.000017 -4.294675  0.002713
   scf:   16     -938.668747     -938.668747     -938.668747  0.000165 -4.294443  0.000307

SCF Convergence by DM+H criterion
max |DM_out - DM_in|         :     0.0001651826
max |H_out - H_in|      (eV) :     0.0003068819
SCF cycle converged after 16 iterations

Using DM_out to compute the final energy and forces
No. of atoms with KB's overlaping orbs in proc 0. Max # of overlaps:       8      55

siesta: E_KS(eV) =             -938.6687

siesta: Atomic forces (eV/Ang):
----------------------------------------
   Tot    0.010194   -0.034223   -0.000000
----------------------------------------
   Max   10.207316
   Res    3.865147    sqrt( Sum f_i^2 / 3N )
----------------------------------------
   Max   10.207316    constrained

Stress tensor Voigt[x,y,z,yz,xz,xy] (kbar):       64.53       27.96       24.31        0.00       -0.00      -41.99
(Free)E + p*V (eV/cell)     -950.8227
Target enthalpy (eV/cell)     -938.6687

siesta: Stress tensor (static) (eV/Ang**3):
         0.042750   -0.028181    0.000000
        -0.028181    0.019152    0.000000
        -0.000000    0.000000    0.027485

siesta: Pressure (static):        -47.73808844  kBar

siesta: Stress tensor (total) (eV/Ang**3):
         0.040278   -0.026205    0.000000
        -0.026205    0.017452    0.000000
        -0.000000    0.000000    0.015176

siesta: Pressure (total):        -38.93637517  kBar

siesta: Temp_ion =    7826.855 K

                     ====================================
                        Begin MD step =      6
                     ====================================

outcell: Unit cell vectors (Ang):
        7.937655    0.000000    0.000000
        0.000000    7.937655    0.000000
        0.000000    0.000000    7.937655

outcell: Cell vector modules (Ang)   :    7.937655    7.937655    7.937655
outcell: Cell angles (23,13,12) (deg):     90.0000     90.0000     90.0000
outcell: Cell volume (Ang**3)        :    500.1228
Gamma-point calculation with multiply-connected orbital pairs
Gamma-point calculation with multiply-connected orbital pairs
Folding of H and S implicitly performed
Folding of H and S implicitly performed
<dSpData1D:S at geom step 6
  <sparsity:sparsity for geom step 6
    nrows_g=68 nrows=68 sparsity=.9615 nnzs=4446, refcount: 7>
  <dData1D:(new from dSpData1D) n=4446, refcount: 1>
refcount: 1>
new_DM -- step:     6
Re-using DM from previous geometries...
Number of DMs in history: 1
 DM extrapolation coefficients: 
1   1.00000
New DM after history re-use:
<dSpData2D:SpM extrapolated using coords
  <sparsity:sparsity for geom step 6
    nrows_g=68 nrows=68 sparsity=.9615 nnzs=4446, refcount: 9>
  <dData2D:(temp array for extrapolation) n=4446 m=1, refcount: 1>
refcount: 1>
Note: For starting DM, Qtot, Tr[D*S] =         22.00000000         22.47617829
No. of atoms with KB's overlaping orbs in proc 0. Max # of overlaps:       8      55
New grid distribution:   1
           1       1:   36    1:   36    1:   36

InitMesh: MESH =    72 x    72 x    72 =      373248
InitMesh: (bp) =    36 x    36 x    36 =       46656
InitMesh: Mesh cutoff (required, used) =   200.000   227.396 Ry
ExtMesh (bp) on 0 =    84 x    84 x    84 =      592704
PhiOnMesh: Number of (b)points on node 0 =                46656
PhiOnMesh: nlist on node 0 =               355248

        iscf     Eharris(eV)        E_KS(eV)     FreeEng(eV)     dDmax    Ef(eV) dHmax(eV)
   scf:    1     -937.837916     -940.537909     -940.537909  0.165200 -3.469911  2.708794
   scf:    2     -929.725064     -937.218491     -937.218491  0.348225 -3.706015 10.098409
   scf:    3     -941.325461     -940.695188     -940.695188  0.289159 -3.510683  1.105024
   scf:    4     -940.685063     -940.705794     -940.705794  0.027386 -3.501324  0.817401
   scf:    5     -940.748108     -940.733658     -940.733658  0.015862 -3.474854  0.511496
   scf:    6     -940.746596     -940.743124     -940.743124  0.007226 -3.353931  0.083344
   scf:    7     -940.743329     -940.743260     -940.743260  0.001497 -3.358324  0.048471
   scf:    8     -940.743492     -940.743482     -940.743482  0.001801 -3.348907  0.039074
   scf:    9     -940.743257     -940.743413     -940.743413  0.001209 -3.352568  0.050362
   scf:   10     -940.743584     -940.743552     -940.743552  0.001356 -3.351286  0.004292
   scf:   11     -940.743553     -940.743553     -940.743553  0.000046 -3.351328  0.004142
   scf:   12     -940.743554     -940.743553     -940.743553  0.000036 -3.351411  0.004520
   scf:   13     -940.743553     -940.743553     -940.743553  0.000047 -3.351009  0.003824
   scf:   14     -940.743557     -940.743555     -940.743555  0.000177 -3.349969  0.000335

SCF Convergence by DM+H criterion
max |DM_out - DM_in|         :     0.0001769267
max |H_out - H_in|      (eV) :     0.0003345043
SCF cycle converged after 14 iterations

Using DM_out to compute the final energy and forces
No. of atoms with KB's overlaping orbs in proc 0. Max # of overlaps:       8      55

siesta: E_KS(eV) =             -940.7436

siesta: Atomic forces (eV/Ang):
----------------------------------------
   Tot   -0.027372   -0.014895    0.000000
----------------------------------------
   Max   10.010810
   Res    3.731149    sqrt( Sum f_i^2 / 3N )
----------------------------------------
   Max   10.010810    constrained

Stress tensor Voigt[x,y,z,yz,xz,xy] (kbar):       58.00       15.17      -45.16       -0.00       -0.00      -38.50
(Free)E + p*V (eV/cell)     -943.6580
Target enthalpy (eV/cell)     -940.7436

siesta: Stress tensor (static) (eV/Ang**3):
         0.040728   -0.027606    0.000000
        -0.027606    0.012486   -0.000000
        -0.000000   -0.000000   -0.007617

siesta: Pressure (static):        -24.35212948  kBar

siesta: Stress tensor (total) (eV/Ang**3):
         0.036199   -0.024031    0.000000
        -0.024031    0.009467   -0.000000
        -0.000000   -0.000000   -0.028184

siesta: Pressure (total):         -9.33674081  kBar

siesta: Temp_ion =    9803.427 K

                     ====================================
                        Begin MD step =      7
                     ====================================

outcell: Unit cell vectors (Ang):
        7.937655    0.000000    0.000000
        0.000000    7.937655    0.000000
        0.000000    0.000000    7.937655

outcell: Cell vector modules (Ang)   :    7.937655    7.937655    7.937655
outcell: Cell angles (23,13,12) (deg):     90.0000     90.0000     90.0000
outcell: Cell volume (Ang**3)        :    500.1228
Gamma-point calculation with multiply-connected orbital pairs
Gamma-point calculation with multiply-connected orbital pairs
Folding of H and S implicitly performed
Folding of H and S implicitly performed
<dSpData1D:S at geom step 7
  <sparsity:sparsity for geom step 7
    nrows_g=68 nrows=68 sparsity=.9615 nnzs=4446, refcount: 7>
  <dData1D:(new from dSpData1D) n=4446, refcount: 1>
refcount: 1>
new_DM -- step:     7
Re-using DM from previous geometries...
Number of DMs in history: 1
 DM extrapolation coefficients: 
1   1.00000
New DM after history re-use:
<dSpData2D:SpM extrapolated using coords
  <sparsity:sparsity for geom step 7
    nrows_g=68 nrows=68 sparsity=.9615 nnzs=4446, refcount: 9>
  <dData2D:(temp array for extrapolation) n=4446 m=1, refcount: 1>
refcount: 1>
Note: For starting DM, Qtot, Tr[D*S] =         22.00000000         22.39149007
No. of atoms with KB's overlaping orbs in proc 0. Max # of overlaps:       8      55
New grid distribution:   1
           1       1:   36    1:   36    1:   36

InitMesh: MESH =    72 x    72 x    72 =      373248
InitMesh: (bp) =    36 x    36 x    36 =       46656
InitMesh: Mesh cutoff (required, used) =   200.000   227.396 Ry
ExtMesh (bp) on 0 =    84 x    84 x    84 =      592704
PhiOnMesh: Number of (b)points on node 0 =                46656
PhiOnMesh: nlist on node 0 =               355406

        iscf     Eharris(eV)        E_KS(eV)     FreeEng(eV)     dDmax    Ef(eV) dHmax(eV)
   scf:    1     -936.412741     -938.887436     -938.887436  0.242225 -4.772206  2.374725
   scf:    2     -937.228469     -938.444982     -938.444982  0.092572 -3.132852  3.949356
   scf:    3     -939.183493     -938.986557     -938.986557  0.063403 -4.213922  0.704915
   scf:    4     -939.004158     -938.997581     -938.997581  0.010584 -4.191238  0.306737
   scf:    5     -938.995587     -938.998784     -938.998784  0.010648 -4.104914  0.279123
   scf:    6     -939.005838     -939.003770     -939.003770  0.009158 -4.066299  0.048488
   scf:    7     -939.002104     -939.003366     -939.003366  0.004063 -4.064951  0.112238
   scf:    8     -939.004450     -939.004143     -939.004143  0.002905 -4.043405  0.015338
   scf:    9     -939.004154     -939.004153     -939.004153  0.000406 -4.045219  0.013432
   scf:   10     -939.004173     -939.004166     -939.004166  0.000617 -4.041809  0.003436
   scf:   11     -939.004167     -939.004167     -939.004167  0.000042 -4.041783  0.003375
   scf:   12     -939.004168     -939.004167     -939.004167  0.000054 -4.042261  0.002415
   scf:   13     -939.004168     -939.004168     -939.004168  0.000043 -4.042142  0.002328
   scf:   14     -939.004168     -939.004168     -939.004168  0.000042 -4.041940  0.002285
   scf:   15     -939.004168     -939.004168     -939.004168  0.000066 -4.041450  0.000858

SCF Convergence by DM+H criterion
max |DM_out - DM_in|         :     0.0000656479
max |H_out - H_in|      (eV) :     0.0008582661
SCF cycle converged after 15 iterations

Using DM_out to compute the final energy and forces
No. of atoms with KB's overlaping orbs in proc 0. Max # of overlaps:       8      55

siesta: E_KS(eV) =             -939.0042

siesta: Atomic forces (eV/Ang):
----------------------------------------
   Tot    0.008907    0.006488    0.000000
----------------------------------------
   Max   11.289612
   Res    6.584755    sqrt( Sum f_i^2 / 3N )
----------------------------------------
   Max   11.289612    constrained

Stress tensor Voigt[x,y,z,yz,xz,xy] (kbar):       46.39      -13.63     -127.56       -0.00       -0.00      -38.64
(Free)E + p*V (eV/cell)     -929.1416
Target enthalpy (eV/cell)     -939.0042

siesta: Stress tensor (static) (eV/Ang**3):
         0.036309   -0.029458    0.000000
        -0.029457   -0.004077   -0.000000
        -0.000000   -0.000000   -0.056177

siesta: Pressure (static):         12.78834495  kBar

siesta: Stress tensor (total) (eV/Ang**3):
         0.028956   -0.024115    0.000000
        -0.024114   -0.008504   -0.000000
        -0.000000   -0.000000   -0.079613

siesta: Pressure (total):         31.59567630  kBar

siesta: Temp_ion =    8237.185 K

                     ====================================
                        Begin MD step =      8
                     ====================================

outcell: Unit cell vectors (Ang):
        7.937655    0.000000    0.000000
        0.000000    7.937655    0.000000
        0.000000    0.000000    7.937655

outcell: Cell vector modules (Ang)   :    7.937655    7.937655    7.937655
outcell: Cell angles (23,13,12) (deg):     90.0000     90.0000     90.0000
outcell: Cell volume (Ang**3)        :    500.1228
Gamma-point calculation with multiply-connected orbital pairs
Gamma-point calculation with multiply-connected orbital pairs
Folding of H and S implicitly performed
Folding of H and S implicitly performed
<dSpData1D:S at geom step 8
  <sparsity:sparsity for geom step 8
    nrows_g=68 nrows=68 sparsity=.9615 nnzs=4446, refcount: 7>
  <dData1D:(new from dSpData1D) n=4446, refcount: 1>
refcount: 1>
new_DM -- step:     8
Re-using DM from previous geometries...
Number of DMs in history: 1
 DM extrapolation coefficients: 
1   1.00000
New DM after history re-use:
<dSpData2D:SpM extrapolated using coords
  <sparsity:sparsity for geom step 8
    nrows_g=68 nrows=68 sparsity=.9615 nnzs=4446, refcount: 9>
  <dData2D:(temp array for extrapolation) n=4446 m=1, refcount: 1>
refcount: 1>
Note: For starting DM, Qtot, Tr[D*S] =         22.00000000         22.18249862
No. of atoms with KB's overlaping orbs in proc 0. Max # of overlaps:       8      55
New grid distribution:   1
           1       1:   36    1:   36    1:   36

InitMesh: MESH =    72 x    72 x    72 =      373248
InitMesh: (bp) =    36 x    36 x    36 =       46656
InitMesh: Mesh cutoff (required, used) =   200.000   227.396 Ry
ExtMesh (bp) on 0 =    84 x    84 x    84 =      592704
PhiOnMesh: Number of (b)points on node 0 =                46656
PhiOnMesh: nlist on node 0 =               355037

        iscf     Eharris(eV)        E_KS(eV)     FreeEng(eV)     dDmax    Ef(eV) dHmax(eV)
   scf:    1     -935.685454     -938.278824     -938.278824  0.172179 -5.077211  4.584328
   scf:    2     -919.618299     -933.188213     -933.188213  0.370465 -2.852625 13.346239
   scf:    3     -941.511463     -939.100874     -939.100874  0.238128 -4.262186  1.556722
   scf:    4     -939.156216     -939.129875     -939.129875  0.006971 -4.300883  1.244374
   scf:    5     -939.211941     -939.196780     -939.196780  0.027859 -4.242967  0.237805
   scf:    6     -939.194218     -939.195938     -939.195938  0.003829 -4.245589  0.301106
   scf:    7     -939.202179     -939.202790     -939.202790  0.011691 -4.200960  0.177540
   scf:    8     -939.204300     -939.203624     -939.203624  0.001551 -4.188692  0.108991
   scf:    9     -939.203675     -939.204054     -939.204054  0.003292 -4.172398  0.053403
   scf:   10     -939.204172     -939.204176     -939.204176  0.001580 -4.181208  0.015552
   scf:   11     -939.204245     -939.204219     -939.204219  0.001263 -4.176551  0.003068
   scf:   12     -939.204219     -939.204219     -939.204219  0.000037 -4.176425  0.002852
   scf:   13     -939.204219     -939.204219     -939.204219  0.000071 -4.176818  0.001640
   scf:   14     -939.204219     -939.204219     -939.204219  0.000011 -4.176742  0.001412
   scf:   15     -939.204219     -939.204219     -939.204219  0.000035 -4.176400  0.001486
   scf:   16     -939.204219     -939.204219     -939.204219  0.000009 -4.176347  0.001406
   scf:   17     -939.204220     -939.204220     -939.204220  0.000060 -4.176178  0.000289

SCF Convergence by DM+H criterion
max |DM_out - DM_in|         :     0.0000600699
max |H_out - H_in|      (eV) :     0.0002889909
SCF cycle converged after 17 iterations

Using DM_out to compute the final energy and forces
No. of atoms with KB's overlaping orbs in proc 0. Max # of overlaps:       8      55

siesta: E_KS(eV) =             -939.2042

siesta: Atomic forces (eV/Ang):
----------------------------------------
   Tot   -0.053077   -0.006705    0.000000
----------------------------------------
   Max   12.737573
   Res    6.895303    sqrt( Sum f_i^2 / 3N )
----------------------------------------
   Max   12.737573    constrained

Stress tensor Voigt[x,y,z,yz,xz,xy] (kbar):       22.09      -31.59     -109.49        0.00       -0.00      -32.47
(Free)E + p*V (eV/cell)     -926.8233
Target enthalpy (eV/cell)     -939.2042

siesta: Stress tensor (static) (eV/Ang**3):
         0.025467   -0.025982    0.000000
        -0.025982   -0.013449   -0.000000
        -0.000000    0.000000   -0.056696

siesta: Pressure (static):         23.86096599  kBar

siesta: Stress tensor (total) (eV/Ang**3):
         0.013789   -0.020267   -0.000000
        -0.020267   -0.019717   -0.000000
        -0.000000    0.000000   -0.068339

siesta: Pressure (total):         39.66355049  kBar

siesta: Temp_ion =    8588.234 K

                     ====================================
                        Begin MD step =      9
                     ====================================

outcell: Unit cell vectors (Ang):
        7.937655    0.000000    0.000000
        0.000000    7.937655    0.000000
        0.000000    0.000000    7.937655

outcell: Cell vector modules (Ang)   :    7.937655    7.937655    7.937655
outcell: Cell angles (23,13,12) (deg):     90.0000     90.0000     90.0000
outcell: Cell volume (Ang**3)        :    500.1228
Gamma-point calculation with multiply-connected orbital pairs
Gamma-point calculation with multiply-connected orbital pairs
Folding of H and S implicitly performed
Folding of H and S implicitly performed
<dSpData1D:S at geom step 9
  <sparsity:sparsity for geom step 9
    nrows_g=68 nrows=68 sparsity=.9615 nnzs=4446, refcount: 7>
  <dData1D:(new from dSpData1D) n=4446, refcount: 1>
refcount: 1>
new_DM -- step:     9
Re-using DM from previous geometries...
Number of DMs in history: 1
 DM extrapolation coefficients: 
1   1.00000
New DM after history re-use:
<dSpData2D:SpM extrapolated using coords
  <sparsity:sparsity for geom step 9
    nrows_g=68 nrows=68 sparsity=.9615 nnzs=4446, refcount: 9>
  <dData2D:(temp array for extrapolation) n=4446 m=1, refcount: 1>
refcount: 1>
Note: For starting DM, Qtot, Tr[D*S] =         22.00000000         22.03847881
No. of atoms with KB's overlaping orbs in proc 0. Max # of overlaps:       8      55
New grid distribution:   1
           1       1:   36    1:   36    1:   36

InitMesh: MESH =    72 x    72 x    72 =      373248
InitMesh: (bp) =    36 x    36 x    36 =       46656
InitMesh: Mesh cutoff (required, used) =   200.000   227.396 Ry
ExtMesh (bp) on 0 =    84 x    84 x    84 =      592704
PhiOnMesh: Number of (b)points on node 0 =                46656
PhiOnMesh: nlist on node 0 =               355273

        iscf     Eharris(eV)        E_KS(eV)     FreeEng(eV)     dDmax    Ef(eV) dHmax(eV)
   scf:    1     -938.795968     -940.621247     -940.621247  0.216235 -3.490578  6.530552
   scf:    2     -916.173019     -934.393533     -934.393533  0.399276 -3.883936 15.192325
   scf:    3     -945.764146     -942.150529     -942.150529  0.238469 -4.372464  1.787588
   scf:    4     -942.177236     -942.266780     -942.266780  0.053939 -4.687994  0.966927
   scf:    5     -942.256817     -942.262081     -942.262081  0.002551 -4.696959  1.084350
   scf:    6     -942.265733     -942.283637     -942.283637  0.027172 -4.576768  0.505420
   scf:    7     -942.282174     -942.286385     -942.286385  0.009801 -4.631472  0.733078
   scf:    8     -942.302642     -942.304364     -942.304364  0.018610 -4.558560  0.152708
   scf:    9     -942.305507     -942.305123     -942.305123  0.002211 -4.566467  0.075748
   scf:   10     -942.305567     -942.305398     -942.305398  0.001794 -4.557296  0.035859
   scf:   11     -942.305267     -942.305343     -942.305343  0.000461 -4.554260  0.052866
   scf:   12     -942.305495     -942.305460     -942.305460  0.001031 -4.558630  0.003989
   scf:   13     -942.305460     -942.305460     -942.305460  0.000025 -4.558716  0.003420
   scf:   14     -942.305462     -942.305461     -942.305461  0.000141 -4.558708  0.001804
   scf:   15     -942.305461     -942.305461     -942.305461  0.000003 -4.558714  0.001725
   scf:   16     -942.305461     -942.305461     -942.305461  0.000035 -4.559060  0.000594

SCF Convergence by DM+H criterion
max |DM_out - DM_in|         :     0.0000349694
max |H_out - H_in|      (eV) :     0.0005942749
SCF cycle converged after 16 iterations

Using DM_out to compute the final energy and forces
No. of atoms with KB's overlaping orbs in proc 0. Max # of overlaps:       8      55

siesta: E_KS(eV) =             -942.3055

siesta: Atomic forces (eV/Ang):
----------------------------------------
   Tot    0.042443   -0.020922   -0.000000
----------------------------------------
   Max    6.029946
   Res    2.440004    sqrt( Sum f_i^2 / 3N )
----------------------------------------
   Max    6.029946    constrained

Stress tensor Voigt[x,y,z,yz,xz,xy] (kbar):       -8.41      -24.29      -34.94       -0.00       -0.00        1.27
(Free)E + p*V (eV/cell)     -935.2672
Target enthalpy (eV/cell)     -942.3055

siesta: Stress tensor (static) (eV/Ang**3):
         0.012894   -0.001305    0.000000
        -0.001305   -0.002919   -0.000000
        -0.000000   -0.000000   -0.021344

siesta: Pressure (static):          6.07169876  kBar

siesta: Stress tensor (total) (eV/Ang**3):
        -0.005250    0.000790   -0.000000
         0.000791   -0.015162   -0.000000
        -0.000000   -0.000000   -0.021807

siesta: Pressure (total):         22.54775042  kBar

siesta: Temp_ion =   11374.454 K

                     ====================================
                        Begin MD step =     10
                     ====================================

outcell: Unit cell vectors (Ang):
        7.937655    0.000000    0.000000
        0.000000    7.937655    0.000000
        0.000000    0.000000    7.937655

outcell: Cell vector modules (Ang)   :    7.937655    7.937655    7.937655
outcell: Cell angles (23,13,12) (deg):     90.0000     90.0000     90.0000
outcell: Cell volume (Ang**3)        :    500.1228
Gamma-point calculation with multiply-connected orbital pairs
Gamma-point calculation with multiply-connected orbital pairs
Folding of H and S implicitly performed
Folding of H and S implicitly performed
<dSpData1D:S at geom step 10
  <sparsity:sparsity for geom step 10
    nrows_g=68 nrows=68 sparsity=.9546 nnzs=4414, refcount: 7>
  <dData1D:(new from dSpData1D) n=4414, refcount: 1>
refcount: 1>
new_DM -- step:    10
Re-using DM from previous geometries...
Number of DMs in history: 1
 DM extrapolation coefficients: 
1   1.00000
New DM after history re-use:
<dSpData2D:SpM extrapolated using coords
  <sparsity:sparsity for geom step 10
    nrows_g=68 nrows=68 sparsity=.9546 nnzs=4414, refcount: 9>
  <dData2D:(temp array for extrapolation) n=4414 m=1, refcount: 1>
refcount: 1>
Note: For starting DM, Qtot, Tr[D*S] =         22.00000000         21.91528957
No. of atoms with KB's overlaping orbs in proc 0. Max # of overlaps:       8      55
New grid distribution:   1
           1       1:   36    1:   36    1:   36

InitMesh: MESH =    72 x    72 x    72 =      373248
InitMesh: (bp) =    36 x    36 x    36 =       46656
InitMesh: Mesh cutoff (required, used) =   200.000   227.396 Ry
ExtMesh (bp) on 0 =    84 x    84 x    84 =      592704
PhiOnMesh: Number of (b)points on node 0 =                46656
PhiOnMesh: nlist on node 0 =               355260

        iscf     Eharris(eV)        E_KS(eV)     FreeEng(eV)     dDmax    Ef(eV) dHmax(eV)
   scf:    1     -934.725598     -937.812658     -937.812658  0.164937 -4.276431  7.164173
   scf:    2     -906.317620     -930.002241     -930.002241  0.330066 -4.523609 14.827542
   scf:    3     -944.814962     -939.941969     -939.941969  0.203169 -4.936419  2.087327
   scf:    4     -940.145836     -940.178493     -940.178493  0.065237 -5.344633  0.994431
   scf:    5     -940.148778     -940.165184     -940.165184  0.006675 -5.385413  1.164363
   scf:    6     -940.202257     -940.201300     -940.201300  0.027696 -5.269664  0.243926
   scf:    7     -940.206136     -940.204718     -940.204718  0.006854 -5.279484  0.099652
   scf:    8     -940.203780     -940.204694     -940.204694  0.003612 -5.267175  0.093438
   scf:    9     -940.205784     -940.205447     -940.205447  0.002542 -5.253234  0.015634
   scf:   10     -940.205446     -940.205450     -940.205450  0.000383 -5.253046  0.011781
   scf:   11     -940.205477     -940.205467     -940.205467  0.000389 -5.253516  0.006234
   scf:   12     -940.205469     -940.205468     -940.205468  0.000108 -5.253953  0.004155
   scf:   13     -940.205469     -940.205469     -940.205469  0.000163 -5.254161  0.001839
   scf:   14     -940.205469     -940.205469     -940.205469  0.000005 -5.254191  0.001779
   scf:   15     -940.205470     -940.205469     -940.205469  0.000210 -5.254944  0.000259

SCF Convergence by DM+H criterion
max |DM_out - DM_in|         :     0.0002097395
max |H_out - H_in|      (eV) :     0.0002585804
SCF cycle converged after 15 iterations

Using DM_out to compute the final energy and forces
No. of atoms with KB's overlaping orbs in proc 0. Max # of overlaps:       8      55

siesta: E_KS(eV) =             -940.2055

siesta: Atomic forces (eV/Ang):
----------------------------------------
   Tot    0.012604    0.058133    0.000000
----------------------------------------
   Max   21.626428
   Res    7.659981    sqrt( Sum f_i^2 / 3N )
----------------------------------------
   Max   21.626428    constrained

Stress tensor Voigt[x,y,z,yz,xz,xy] (kbar):      -47.59      -31.41       -4.57        0.00       -0.00       44.93
(Free)E + p*V (eV/cell)     -931.5100
Target enthalpy (eV/cell)     -940.2055

siesta: Stress tensor (static) (eV/Ang**3):
        -0.007929    0.030341   -0.000000
         0.030341   -0.002219    0.000000
        -0.000000    0.000000   -0.001153

siesta: Pressure (static):          6.03550814  kBar

siesta: Stress tensor (total) (eV/Ang**3):
        -0.029702    0.028042   -0.000000
         0.028042   -0.019603    0.000000
        -0.000000    0.000000   -0.002854

siesta: Pressure (total):         27.85676869  kBar

siesta: Temp_ion =    9339.488 K

                     ====================================
                        Begin MD step =     11
                     ====================================

outcell: Unit cell vectors (Ang):
        7.937655    0.000000    0.000000
        0.000000    7.937655    0.000000
        0.000000    0.000000    7.937655

outcell: Cell vector modules (Ang)   :    7.937655    7.937655    7.937655
outcell: Cell angles (23,13,12) (deg):     90.0000     90.0000     90.0000
outcell: Cell volume (Ang**3)        :    500.1228
Gamma-point calculation with multiply-connected orbital pairs
Gamma-point calculation with multiply-connected orbital pairs
Folding of H and S implicitly performed
Folding of H and S implicitly performed
<dSpData1D:S at geom step 11
  <sparsity:sparsity for geom step 11
    nrows_g=68 nrows=68 sparsity=.9719 nnzs=4494, refcount: 7>
  <dData1D:(new from dSpData1D) n=4494, refcount: 1>
refcount: 1>
new_DM -- step:    11
Re-using DM from previous geometries...
Number of DMs in history: 1
 DM extrapolation coefficients: 
1   1.00000
New DM after history re-use:
<dSpData2D:SpM extrapolated using coords
  <sparsity:sparsity for geom step 11
    nrows_g=68 nrows=68 sparsity=.9719 nnzs=4494, refcount: 9>
  <dData2D:(temp array for extrapolation) n=4494 m=1, refcount: 1>
refcount: 1>
Note: For starting DM, Qtot, Tr[D*S] =         22.00000000         21.84641602
No. of atoms with KB's overlaping orbs in proc 0. Max # of overlaps:       8      63
New grid distribution:   1
           1       1:   36    1:   36    1:   36

InitMesh: MESH =    72 x    72 x    72 =      373248
InitMesh: (bp) =    36 x    36 x    36 =       46656
InitMesh: Mesh cutoff (required, used) =   200.000   227.396 Ry
ExtMesh (bp) on 0 =    84 x    84 x    84 =      592704
PhiOnMesh: Number of (b)points on node 0 =                46656
PhiOnMesh: nlist on node 0 =               355413

        iscf     Eharris(eV)        E_KS(eV)     FreeEng(eV)     dDmax    Ef(eV) dHmax(eV)
   scf:    1     -932.874433     -934.371953     -934.371953  0.110853 -4.238442  5.025245
   scf:    2     -912.356681     -928.584395     -928.584395  0.240714 -3.231795 13.019442
   scf:    3     -938.579760     -935.519082     -935.519082  0.181460 -4.399146  1.660171
   scf:    4     -935.481472     -935.608771     -935.608771  0.060990 -4.717302  1.449114
   scf:    5     -935.671025     -935.643012     -935.643012  0.011307 -4.710721  0.841353
   scf:    6     -935.631947     -935.658064     -935.658064  0.028855 -4.609554  0.521207
   scf:    7     -935.669835     -935.665063     -935.665063  0.006372 -4.621953  0.347885
   scf:    8     -935.651006     -935.658645     -935.658645  0.003997 -4.605840  0.567607
   scf:    9     -935.644385     -935.663090     -935.663090  0.017470 -4.663389  0.438052
   scf:   10     -935.671244     -935.669194     -935.669194  0.007848 -4.635100  0.025105
   scf:   11     -935.669031     -935.669127     -935.669127  0.000646 -4.637640  0.051195
   scf:   12     -935.669126     -935.669127     -935.669127  0.000133 -4.637702  0.049829
   scf:   13     -935.669246     -935.669221     -935.669221  0.001104 -4.632660  0.003058
   scf:   14     -935.669221     -935.669221     -935.669221  0.000026 -4.632613  0.002560
   scf:   15     -935.669221     -935.669221     -935.669221  0.000038 -4.632674  0.002397
   scf:   16     -935.669222     -935.669221     -935.669221  0.000045 -4.632685  0.000927

SCF Convergence by DM+H criterion
max |DM_out - DM_in|         :     0.0000447534
max |H_out - H_in|      (eV) :     0.0009268884
SCF cycle converged after 16 iterations

Using DM_out to compute the final energy and forces
No. of atoms with KB's overlaping orbs in proc 0. Max # of overlaps:       8      63

siesta: E_KS(eV) =             -935.6692

siesta: Atomic forces (eV/Ang):
----------------------------------------
   Tot   -0.035895    0.023507    0.000000
----------------------------------------
   Max   38.267190
   Res   13.701647    sqrt( Sum f_i^2 / 3N )
----------------------------------------
   Max   38.267190    constrained

Stress tensor Voigt[x,y,z,yz,xz,xy] (kbar):      -76.34      -36.30        5.37        0.00        0.00       80.32
(Free)E + p*V (eV/cell)     -924.5073
Target enthalpy (eV/cell)     -935.6692

siesta: Stress tensor (static) (eV/Ang**3):
        -0.030860    0.053692    0.000000
         0.053691   -0.009334    0.000000
         0.000000    0.000000    0.006788

siesta: Pressure (static):         17.84119437  kBar

siesta: Stress tensor (total) (eV/Ang**3):
        -0.047648    0.050131    0.000000
         0.050130   -0.022658    0.000000
         0.000000    0.000000    0.003350

siesta: Pressure (total):         35.75848590  kBar

siesta: Temp_ion =    4730.507 K

                     ====================================
                        Begin MD step =     12
                     ====================================

outcell: Unit cell vectors (Ang):
        7.937655    0.000000    0.000000
        0.000000    7.937655    0.000000
        0.000000    0.000000    7.937655

outcell: Cell vector modules (Ang)   :    7.937655    7.937655    7.937655
outcell: Cell angles (23,13,12) (deg):     90.0000     90.0000     90.0000
outcell: Cell volume (Ang**3)        :    500.1228
Gamma-point calculation with multiply-connected orbital pairs
Gamma-point calculation with multiply-connected orbital pairs
Folding of H and S implicitly performed
[...]

siesta: Stress tensor (static) (eV/Ang**3):
         0.018910    0.001327    0.000000
         0.001326    0.052151    0.000000
         0.000000    0.000000    0.041646

siesta: Pressure (static):        -60.19286083  kBar

siesta: Stress tensor (total) (eV/Ang**3):
         0.014448   -0.000455    0.000000
        -0.000455    0.048151    0.000000
         0.000000    0.000000    0.039106

siesta: Pressure (total):        -54.31690511  kBar

siesta: Temp_ion =    3531.357 K

                     ====================================
                        Begin MD step =     98
                     ====================================

outcell: Unit cell vectors (Ang):
        7.937655    0.000000    0.000000
        0.000000    7.937655    0.000000
        0.000000    0.000000    7.937655

outcell: Cell vector modules (Ang)   :    7.937655    7.937655    7.937655
outcell: Cell angles (23,13,12) (deg):     90.0000     90.0000     90.0000
outcell: Cell volume (Ang**3)        :    500.1228
<dSpData1D:S at geom step 98
  <sparsity:sparsity for geom step 98
    nrows_g=68 nrows=68 sparsity=.9931 nnzs=4592, refcount: 7>
  <dData1D:(new from dSpData1D) n=4592, refcount: 1>
refcount: 1>
new_DM -- step:    98
Re-using DM from previous geometries...
Number of DMs in history: 1
 DM extrapolation coefficients: 
1   1.00000
New DM after history re-use:
<dSpData2D:SpM extrapolated using coords
  <sparsity:sparsity for geom step 98
    nrows_g=68 nrows=68 sparsity=.9931 nnzs=4592, refcount: 9>
  <dData2D:(temp array for extrapolation) n=4592 m=1, refcount: 1>
refcount: 1>
Note: For starting DM, Qtot, Tr[D*S] =         22.00000000         22.19650115
No. of atoms with KB's overlaping orbs in proc 0. Max # of overlaps:       8      64
New grid distribution:   1
           1       1:   36    1:   36    1:   36

InitMesh: MESH =    72 x    72 x    72 =      373248
InitMesh: (bp) =    36 x    36 x    36 =       46656
InitMesh: Mesh cutoff (required, used) =   200.000   227.396 Ry
ExtMesh (bp) on 0 =    84 x    84 x    84 =      592704
PhiOnMesh: Number of (b)points on node 0 =                46656
PhiOnMesh: nlist on node 0 =               355304

        iscf     Eharris(eV)        E_KS(eV)     FreeEng(eV)     dDmax    Ef(eV) dHmax(eV)
   scf:    1     -934.325874     -935.534680     -935.534680  0.083212 -4.920228  3.691612
   scf:    2     -901.131767     -924.832757     -924.832757  0.617616 -3.335333 18.477425
   scf:    3     -937.417571     -935.906299     -935.906299  0.536436 -4.484819  0.356261
   scf:    4     -935.905087     -935.906901     -935.906901  0.007277 -4.488098  0.286895
   scf:    5     -935.909694     -935.914444     -935.914444  0.031544 -4.584905  0.348428
   scf:    6     -935.909349     -935.912045     -935.912045  0.003867 -4.591383  0.442427
   scf:    7     -935.919512     -935.917555     -935.917555  0.012359 -4.573367  0.094412
   scf:    8     -935.916696     -935.917260     -935.917260  0.004609 -4.588190  0.095940
   scf:    9     -935.918068     -935.917878     -935.917878  0.005147 -4.564282  0.007201
   scf:   10     -935.917866     -935.917874     -935.917874  0.000274 -4.566493  0.010825
   scf:   11     -935.917891     -935.917886     -935.917886  0.000686 -4.564658  0.002780
   scf:   12     -935.917884     -935.917885     -935.917885  0.000124 -4.564488  0.003877
   scf:   13     -935.917887     -935.917886     -935.917886  0.000109 -4.564654  0.002026
   scf:   14     -935.917886     -935.917886     -935.917886  0.000110 -4.564541  0.000994

SCF Convergence by DM+H criterion
max |DM_out - DM_in|         :     0.0001097837
max |H_out - H_in|      (eV) :     0.0009941332
SCF cycle converged after 14 iterations

Using DM_out to compute the final energy and forces
No. of atoms with KB's overlaping orbs in proc 0. Max # of overlaps:       8      64

siesta: E_KS(eV) =             -935.9179

siesta: Atomic forces (eV/Ang):
----------------------------------------
   Tot   -0.013970    0.017369   -0.000024
----------------------------------------
   Max   10.292537
   Res    3.594214    sqrt( Sum f_i^2 / 3N )
----------------------------------------
   Max   10.292537    constrained

Stress tensor Voigt[x,y,z,yz,xz,xy] (kbar):       20.11       60.89       68.24        0.00        0.00       -0.93
(Free)E + p*V (eV/cell)     -951.4461
Target enthalpy (eV/cell)     -935.9179

siesta: Stress tensor (static) (eV/Ang**3):
         0.017495    0.001559    0.000000
         0.001559    0.045388    0.000000
         0.000000    0.000000    0.042948

siesta: Pressure (static):        -56.52100652  kBar

siesta: Stress tensor (total) (eV/Ang**3):
         0.012550   -0.000583    0.000000
        -0.000583    0.038007    0.000000
         0.000000    0.000000    0.042589

siesta: Pressure (total):        -49.74629322  kBar

siesta: Temp_ion =    4933.976 K

                     ====================================
                        Begin MD step =     99
                     ====================================

outcell: Unit cell vectors (Ang):
        7.937655    0.000000    0.000000
        0.000000    7.937655    0.000000
        0.000000    0.000000    7.937655

outcell: Cell vector modules (Ang)   :    7.937655    7.937655    7.937655
outcell: Cell angles (23,13,12) (deg):     90.0000     90.0000     90.0000
outcell: Cell volume (Ang**3)        :    500.1228
<dSpData1D:S at geom step 99
  <sparsity:sparsity for geom step 99
    nrows_g=68 nrows=68 sparsity=.9931 nnzs=4592, refcount: 7>
  <dData1D:(new from dSpData1D) n=4592, refcount: 1>
refcount: 1>
new_DM -- step:    99
Re-using DM from previous geometries...
Number of DMs in history: 1
 DM extrapolation coefficients: 
1   1.00000
New DM after history re-use:
<dSpData2D:SpM extrapolated using coords
  <sparsity:sparsity for geom step 99
    nrows_g=68 nrows=68 sparsity=.9931 nnzs=4592, refcount: 9>
  <dData2D:(temp array for extrapolation) n=4592 m=1, refcount: 1>
refcount: 1>
Note: For starting DM, Qtot, Tr[D*S] =         22.00000000         22.31027482
No. of atoms with KB's overlaping orbs in proc 0. Max # of overlaps:       8      64
New grid distribution:   1
           1       1:   36    1:   36    1:   36

InitMesh: MESH =    72 x    72 x    72 =      373248
InitMesh: (bp) =    36 x    36 x    36 =       46656
InitMesh: Mesh cutoff (required, used) =   200.000   227.396 Ry
ExtMesh (bp) on 0 =    84 x    84 x    84 =      592704
PhiOnMesh: Number of (b)points on node 0 =                46656
PhiOnMesh: nlist on node 0 =               355229

        iscf     Eharris(eV)        E_KS(eV)     FreeEng(eV)     dDmax    Ef(eV) dHmax(eV)
   scf:    1     -935.774619     -937.475857     -937.475857  0.101454 -4.741594  3.908208
   scf:    2     -904.593668     -927.354090     -927.354090  0.647186 -2.943707 17.519556
   scf:    3     -939.510085     -937.912706     -937.912706  0.559328 -4.691346  0.339666
   scf:    4     -937.912679     -937.913398     -937.913398  0.005800 -4.688095  0.193955
   scf:    5     -937.920810     -937.919896     -937.919896  0.019363 -4.663492  0.184170
   scf:    6     -937.921359     -937.920912     -937.920912  0.004137 -4.662620  0.040465
   scf:    7     -937.921107     -937.921039     -937.921039  0.001344 -4.662625  0.018483
   scf:    8     -937.921085     -937.921071     -937.921071  0.000764 -4.662369  0.022119
   scf:    9     -937.921123     -937.921101     -937.921101  0.000422 -4.661648  0.011063
   scf:   10     -937.921123     -937.921114     -937.921114  0.000398 -4.660338  0.002315
   scf:   11     -937.921114     -937.921114     -937.921114  0.000025 -4.660313  0.002034
   scf:   12     -937.921115     -937.921115     -937.921115  0.000095 -4.660253  0.001561
   scf:   13     -937.921115     -937.921115     -937.921115  0.000003 -4.660241  0.001506
   scf:   14     -937.921115     -937.921115     -937.921115  0.000088 -4.659915  0.000277

SCF Convergence by DM+H criterion
max |DM_out - DM_in|         :     0.0000875015
max |H_out - H_in|      (eV) :     0.0002766619
SCF cycle converged after 14 iterations

Using DM_out to compute the final energy and forces
No. of atoms with KB's overlaping orbs in proc 0. Max # of overlaps:       8      64

siesta: E_KS(eV) =             -937.9211

siesta: Atomic forces (eV/Ang):
----------------------------------------
   Tot   -0.020343   -0.040776   -0.000027
----------------------------------------
   Max    7.853087
   Res    3.040997    sqrt( Sum f_i^2 / 3N )
----------------------------------------
   Max    7.853087    constrained

Stress tensor Voigt[x,y,z,yz,xz,xy] (kbar):       16.64       36.10       68.20        0.00        0.00        0.57
(Free)E + p*V (eV/cell)     -950.5045
Target enthalpy (eV/cell)     -937.9211

siesta: Stress tensor (static) (eV/Ang**3):
         0.015780    0.002889    0.000000
         0.002889    0.034351    0.000000
         0.000000    0.000000    0.043074

siesta: Pressure (static):        -49.77765601  kBar

siesta: Stress tensor (total) (eV/Ang**3):
         0.010384    0.000353    0.000000
         0.000353    0.022532    0.000000
         0.000000    0.000000    0.042566

siesta: Pressure (total):        -40.31209683  kBar

siesta: Temp_ion =    7120.637 K

                     ====================================
                        Begin MD step =    100
                     ====================================

outcell: Unit cell vectors (Ang):
        7.937655    0.000000    0.000000
        0.000000    7.937655    0.000000
        0.000000    0.000000    7.937655

outcell: Cell vector modules (Ang)   :    7.937655    7.937655    7.937655
outcell: Cell angles (23,13,12) (deg):     90.0000     90.0000     90.0000
outcell: Cell volume (Ang**3)        :    500.1228
<dSpData1D:S at geom step 100
  <sparsity:sparsity for geom step 100
    nrows_g=68 nrows=68 sparsity=.9931 nnzs=4592, refcount: 7>
  <dData1D:(new from dSpData1D) n=4592, refcount: 1>
refcount: 1>
new_DM -- step:   100
Re-using DM from previous geometries...
Number of DMs in history: 1
 DM extrapolation coefficients: 
1   1.00000
New DM after history re-use:
<dSpData2D:SpM extrapolated using coords
  <sparsity:sparsity for geom step 100
    nrows_g=68 nrows=68 sparsity=.9931 nnzs=4592, refcount: 9>
  <dData2D:(temp array for extrapolation) n=4592 m=1, refcount: 1>
refcount: 1>
Note: For starting DM, Qtot, Tr[D*S] =         22.00000000         22.41110456
No. of atoms with KB's overlaping orbs in proc 0. Max # of overlaps:       8      64
New grid distribution:   1
           1       1:   36    1:   36    1:   36

InitMesh: MESH =    72 x    72 x    72 =      373248
InitMesh: (bp) =    36 x    36 x    36 =       46656
InitMesh: Mesh cutoff (required, used) =   200.000   227.396 Ry
ExtMesh (bp) on 0 =    84 x    84 x    84 =      592704
PhiOnMesh: Number of (b)points on node 0 =                46656
PhiOnMesh: nlist on node 0 =               355709

        iscf     Eharris(eV)        E_KS(eV)     FreeEng(eV)     dDmax    Ef(eV) dHmax(eV)
   scf:    1     -937.750121     -939.870918     -939.870918  0.130933 -5.088979  3.565584
   scf:    2     -919.984869     -933.880750     -933.880750  0.467830 -2.707671 13.375887
   scf:    3     -941.484001     -940.263891     -940.263891  0.391743 -4.080053  0.467755
   scf:    4     -940.264144     -940.264021     -940.264021  0.000414 -4.078669  0.468828
   scf:    5     -940.281668     -940.275448     -940.275448  0.018345 -3.878321  0.082346
   scf:    6     -940.275363     -940.275425     -940.275425  0.001016 -3.890164  0.076743
   scf:    7     -940.271407     -940.274721     -940.274721  0.010176 -3.887757  0.222563
   scf:    8     -940.276152     -940.276098     -940.276098  0.006351 -3.885849  0.015122
   scf:    9     -940.276030     -940.276095     -940.276095  0.001397 -3.886103  0.026523
   scf:   10     -940.276134     -940.276126     -940.276126  0.000903 -3.885915  0.001891
   scf:   11     -940.276126     -940.276126     -940.276126  0.000013 -3.885816  0.001667
   scf:   12     -940.276126     -940.276126     -940.276126  0.000032 -3.885450  0.002222
   scf:   13     -940.276127     -940.276127     -940.276127  0.000046 -3.885210  0.001464
   scf:   14     -940.276127     -940.276127     -940.276127  0.000011 -3.885184  0.001467
   scf:   15     -940.276127     -940.276127     -940.276127  0.000120 -3.885125  0.001038
   scf:   16     -940.276127     -940.276127     -940.276127  0.000006 -3.885121  0.000943

SCF Convergence by DM+H criterion
max |DM_out - DM_in|         :     0.0000060713
max |H_out - H_in|      (eV) :     0.0009431844
SCF cycle converged after 16 iterations

Using DM_out to compute the final energy and forces
No. of atoms with KB's overlaping orbs in proc 0. Max # of overlaps:       8      64

siesta: E_KS(eV) =             -940.2761

siesta: Atomic forces (eV/Ang):
----------------------------------------
   Tot   -0.011619   -0.000660   -0.000023
----------------------------------------
   Max    5.039943
   Res    2.121500    sqrt( Sum f_i^2 / 3N )
----------------------------------------
   Max    5.039943    constrained

Stress tensor Voigt[x,y,z,yz,xz,xy] (kbar):       12.23        0.10       57.75        0.00        0.00        5.06
(Free)E + p*V (eV/cell)     -947.5685
Target enthalpy (eV/cell)     -940.2761

siesta: Stress tensor (static) (eV/Ang**3):
         0.013442    0.006144    0.000000
         0.006144    0.016675    0.000001
         0.000000    0.000001    0.039205

siesta: Pressure (static):        -37.02236032  kBar

siesta: Stress tensor (total) (eV/Ang**3):
         0.007636    0.003156    0.000000
         0.003156    0.000061    0.000001
         0.000000    0.000001    0.036046

siesta: Pressure (total):        -23.36181270  kBar

siesta: Temp_ion =    9641.674 K

coxmol: Writing XMOL coordinates into file CH2+CN+NH2.xyz                                                      

siesta: Program's energy decomposition (eV):
siesta: Ebs     =      -249.914140
siesta: Eions   =      1418.860585
siesta: Ena     =       257.131658
siesta: Ekin    =       606.183999
siesta: Enl     =       -93.526302
siesta: Eso     =         0.000000
siesta: Edftu   =         0.000000
siesta: DEna    =         3.611576
siesta: DUscf   =         1.751813
siesta: DUext   =         0.000000
siesta: Exc     =      -296.568287
siesta: eta*DQ  =         0.000000
siesta: Emadel  =         0.000000
siesta: Emeta   =         0.000000
siesta: Emolmec =         0.000000
siesta: Ekinion =         8.723642
siesta: Eharris =      -931.552485
siesta: Etot    =      -931.552485
siesta: FreeEng =      -931.552485

siesta: Final energy (eV):
siesta:  Band Struct. =    -249.914140
siesta:       Kinetic =     606.183999
siesta:       Hartree =     970.266423
siesta:       Edftu   =       0.000000
siesta:       Eso     =       0.000000
siesta:    Ext. field =       0.000000
siesta:   Exch.-corr. =    -296.568287
siesta:  Ion-electron =   -2458.018428
siesta:       Ion-ion =     237.860165
siesta:       Ekinion =       8.723642
siesta:         Total =    -931.552485
siesta:         Fermi =      -3.885121

siesta: Atomic forces (eV/Ang):
siesta:      1   -0.839620    0.180961   -0.000204
siesta:      2    0.914905    1.450176   -2.850989
siesta:      3    0.914943    1.450415    2.851211
siesta:      4   -2.586153   -3.091286   -0.000025
siesta:      5   -0.177545    0.045486    5.039943
siesta:      6   -0.177544    0.045488   -5.039940
siesta:      7    2.015389    2.600810   -0.000019
siesta:      8   -0.075995   -2.682711   -0.000000
siesta: ----------------------------------------
siesta:    Tot   -0.011619   -0.000660   -0.000023

siesta: Stress tensor (static) (eV/Ang**3):
siesta:     0.013442    0.006144    0.000000
siesta:     0.006144    0.016675    0.000001
siesta:     0.000000    0.000001    0.039205

siesta: Cell volume =        500.122803 Ang**3

siesta: Pressure (static):
siesta:                Solid            Molecule  Units
siesta:          -0.00025167         -0.00000060  Ry/Bohr**3
siesta:          -0.02310729         -0.00005518  eV/Ang**3
siesta:         -37.02236032         -0.08840491  kBar
(Free)E+ p_basis*V_orbitals  =        -938.646677
(Free)Eharris+ p_basis*V_orbitals  =        -938.646677

siesta: Electric dipole (a.u.)  =    0.565916   -0.684358    0.000003
siesta: Electric dipole (Debye) =    1.438416   -1.739467    0.000008

cite: Please see "CH2+CN+NH2.bib" for an exhaustive BiBTeX file.
cite: Please clearly indicate Siesta version in published work: 4.1.5
cite: This calculation has made use of the following articles
cite: which are encouraged to be cited in a published work.
        Primary SIESTA paper
          DOI: www.doi.org/10.1088/0953-8984/14/11/302


timer: Elapsed wall time (sec) =     740.966
timer: CPU execution times (sec):

Routine            Calls   Time/call    Tot.time        %
siesta                 1    2648.756    2648.756   100.00
Setup                  1       0.247       0.247     0.01
bands                  1       0.000       0.000     0.00
KSV_init               1       0.000       0.000     0.00
IterGeom             100      26.485    2648.503    99.99
state_init           100       0.010       0.975     0.04
hsparse              100       0.000       0.046     0.00
overlap              100       0.009       0.875     0.03
Setup_H0             100       0.555      55.518     2.10
naefs                200       0.000       0.012     0.00
MolMec               200       0.000       0.000     0.00
kinefsm              200       0.005       1.000     0.04
nlefsm               200       0.028       5.674     0.21
DHSCF_Init           100       0.496      49.627     1.87
DHSCF1               100       0.013       1.254     0.05
INITMESH             100       0.000       0.001     0.00
DHSCF2               100       0.484      48.371     1.83
REMESH               100       0.047       4.658     0.18
REORD               4998       0.004      21.380     0.81
PHION                100       0.278      27.836     1.05
COMM_BSC            7296       0.003      24.541     0.93
POISON              1849       0.710    1313.229    49.58
fft                 3698       0.325    1201.552    45.36
IterSCF             1549       1.631    2526.745    95.39
setup_H             1649       1.505    2481.625    93.69
DHSCF               1749       1.455    2545.254    96.09
DHSCF3              1749       1.439    2516.110    94.99
rhoofd              1749       0.457     799.789    30.19
XC                  1749       0.154     269.041    10.16
GXC-CellXC          1749       0.149     260.272     9.83
cellXC              1749       0.149     260.198     9.82
vmat                1749       0.022      39.324     1.48
compute_dm          1549       0.029      44.300     1.67
diagon              1549       0.028      44.016     1.66
r-eigvec            1549       0.025      38.569     1.46
r-buildHS           1549       0.000       0.031     0.00
rdiag               1549       0.025      38.514     1.45
rdiag1              1549       0.008      12.758     0.48
rdiag2              1549       0.004       5.557     0.21
rdiag3              1549       0.011      17.057     0.64
rdiag4              1549       0.002       2.999     0.11
r-buildD            1549       0.003       5.041     0.19
MIXER               1449       0.000       0.214     0.01
PostSCF              100       0.652      65.152     2.46
DHSCF4               100       0.291      29.124     1.10
dfscf                100       0.250      24.989     0.94
overfsm              100       0.001       0.146     0.01
state_analysis       100       0.000       0.026     0.00
siesta_move          100       0.001       0.058     0.00
Analysis               1       0.001       0.001     0.00
siesta_analysis        1       0.001       0.001     0.00
optical                1       0.000       0.000     0.00
  
>> End of run:  17-JUN-2023  20:23:04
Job completed
Job completed
