Siesta Version  : 4.1.5
Architecture    : unknown
Compiler version: GNU Fortran (GCC) 9.4.0
Compiler flags  : mpifort -march=nocona -mtune=haswell -ftree-vectorize -fPIC -fstack-protectorr-strong -fno-plt -O2 -ffunction-sections -pipe
PP flags        : -DFC_HAVE_ABORT -DCDF -DMPI -DSIESTA__MRRR -DNCDF -DNCDF_4
Libraries       : libncdf.a libfdict.a -lscalapack -llapack -lblas -lnetcdff -lnetcdf -lhdf5_hll -lhdf5 -lz
PARALLEL version
NetCDF support
NetCDF-4 support

* Running in serial mode with MPI
>> Start of run:  17-JUN-2023  19:30:07

                           ***********************       
                           *  WELCOME TO SIESTA  *       
                           ***********************       

reinit: Reading from standard input
reinit: Dumped input in INPUT_TMP.02473
************************** Dump of input data file ****************************
SystemName CH2+CN+NH2 reaction             # Descriptive name of the system
SystemLabel            CH2+CN+NH2          # Short name for naming files
# Species and atoms
NumberOfSpecies       3
NumberOfAtoms         8
%block ChemicalSpeciesLabel
  1   6   C
  2   1   H
  3   7   N
%endblock ChemicalSpeciesLabel
# Basis
%block PAO.BasisSizes
    C DZP
    N DZP
    H SZP
%endblock PAO.BasisSizes
LatticeConstant       1.0000 Ang
%block LatticeVectors
15.00000   0.000000  0.000000
 0.00000  15.000000  0.000000
 0.00000   0.000000 15.000000
%endblock LatticeVectors
%block kgrid_Monkhorst_Pack
   1  0  0  0.
   0  1  0  0.
   0  0  1  0.
%endblock Kgrid_Monkhorst_Pack
xc.functional         GGA           # Exchange-correlation functional
xc.authors            PBE           # Exchange-correlation version
#SpinPolarized         true          # Logical parameters are: yes or no
MeshCutoff           200. Ry        # Mesh cutoff. real space mesh
# SCF options
#SCFMustConvergence     true
MaxSCFIterations       150          # Maximum number of SCF iter
DM.MixingWeight       0.02          # New DM amount for next SCF cycle
DM.Tolerance          3.d-4         # Tolerance in maximum difference
                                    # between input and output DM
DM.NumberPulay          6           # to use continuation files
#DM.NumberBroyden       3
#DM.AllowExtrapolation  false
MD.UseSaveData           true
Diag.DivideAndConquer 	true
SolutionMethod        diagon        # OrderN or Diagon
ElectronicTemperature  25 meV       # Temp. for Fermi smearing
# -----------------------------
#  MD options
#  options for a basic MD run
# -----------------------------
# Options to Integrate Equations of motion
MD.TypeOfRun         verlet         # Standard Verlet algrithm
                                    # for Molecular Dynamics
MD.LengthTimeStep         0.5 fs    # time step integration
                                    # Newton eqs of motion
MD.Initial.Time.Step     1          #initial time step of MD
MD.FinalTimeStep         50         #Final time step of MD
# Initial Atomic coordinates and Velocity for MD run
MD.InitialTemperature     0 K       #Assign initial random velocity from
                                    # a Maxwell-Boltzmann distribution
                                    # for a given temperature
MD.UseSaveXV 		true            # use atomic Positions
                                    # and Velocities from
                                    # a saved XV file
AtomicCoordinatesFormat Ang         #Use Angstroms for atomic coordinates
%block AtomicCoordinatesAndAtomicSpecies
            0.0000    0.0000    0.0000 1 ! C 1
            0.0000    1.4100    0.0000 2 ! H 2
            0.0000   -1.4100    0.0000 2 ! H 3
            3.0000    0.0000    0.0000 3 ! N 4
            3.0000    1.0890    0.0000 2 ! H 5
            3.0000   -1.0890    0.0000 2 ! H 6
           -3.0000    0.0000    0.0000 1 ! C 7
           -4.4000    0.0000    0.0000 3 ! N 8
%endblock AtomicCoordinatesAndAtomicSpecies
#MD Output
WriteCoorXmol          true         #Save the final coordinates in .xyz format
WriteMDXmol            true         #Writes the coordinates
                                    #of all atoms at all steps
                                    #in a .ANI file
                                    #in xyz format
WriteMDhistory         true         #writes .MDE and .MD files
                                    # with output data from MD simulation
                                    # MDE contains: Temp, energy, volume, pressure
                                    # (human readable)
                                    # MD contains coords vel lattice vectors
                                    # (unformatted; post-process with iomd.f)
************************** End of input data file *****************************

reinit: -----------------------------------------------------------------------
reinit: System Name: CH2+CN+NH2 reaction
reinit: -----------------------------------------------------------------------
reinit: System Label: CH2+CN+NH2
reinit: -----------------------------------------------------------------------

initatom: Reading input for the pseudopotentials and atomic orbitals ----------
Species number:   1 Atomic number:    6 Label: C
Species number:   2 Atomic number:    1 Label: H
Species number:   3 Atomic number:    7 Label: N

Ground state valence configuration:   2s02  2p02
Reading pseudopotential information in formatted form from C.psf

Valence configuration for pseudopotential generation:
2s( 2.00) rc: 1.54
2p( 2.00) rc: 1.54
3d( 0.00) rc: 1.54
4f( 0.00) rc: 1.54
Ground state valence configuration:   1s01
Reading pseudopotential information in formatted form from H.psf

Valence configuration for pseudopotential generation:
1s( 1.00) rc: 1.31
2p( 0.00) rc: 1.31
3d( 0.00) rc: 0.37
4f( 0.00) rc: 1.31
Ground state valence configuration:   2s02  2p03
Reading pseudopotential information in formatted form from N.psf

Valence configuration for pseudopotential generation:
2s( 2.00) rc: 1.48
2p( 3.00) rc: 1.48
3d( 0.00) rc: 1.48
4f( 0.00) rc: 1.48
resizes: Read basis size for species C = dzp                 
resizes: Read basis size for species N = dzp                 
resizes: Read basis size for species H = szp                 
For C, standard SIESTA heuristics set lmxkb to 3
 (one more than the basis l, including polarization orbitals).
Use PS.lmax or PS.KBprojectors blocks to override.
For H, standard SIESTA heuristics set lmxkb to 2
 (one more than the basis l, including polarization orbitals).
Use PS.lmax or PS.KBprojectors blocks to override.
For N, standard SIESTA heuristics set lmxkb to 3
 (one more than the basis l, including polarization orbitals).
Use PS.lmax or PS.KBprojectors blocks to override.

<basis_specs>
===============================================================================
C                    Z=   6    Mass=  12.010        Charge= 0.17977+309
Lmxo=1 Lmxkb= 3    BasisType=split      Semic=F
L=0  Nsemic=0  Cnfigmx=2
          i=1  nzeta=2  polorb=0  (2s)
            splnorm:   0.15000    
               vcte:    0.0000    
               rinn:    0.0000    
               qcoe:    0.0000    
               qyuk:    0.0000    
               qwid:   0.10000E-01
                rcs:    0.0000      0.0000    
            lambdas:    1.0000      1.0000    
L=1  Nsemic=0  Cnfigmx=2
          i=1  nzeta=2  polorb=1  (2p)
            splnorm:   0.15000    
               vcte:    0.0000    
               rinn:    0.0000    
               qcoe:    0.0000    
               qyuk:    0.0000    
               qwid:   0.10000E-01
                rcs:    0.0000      0.0000    
            lambdas:    1.0000      1.0000    
-------------------------------------------------------------------------------
L=0  Nkbl=1  erefs: 0.17977+309
L=1  Nkbl=1  erefs: 0.17977+309
L=2  Nkbl=1  erefs: 0.17977+309
L=3  Nkbl=1  erefs: 0.17977+309
===============================================================================
</basis_specs>

atom: Called for C                     (Z =   6)

read_vps: Pseudopotential generation method:
read_vps: ATM3      Troullier-Martins                       
Valence charge for ps generation:    4.00000

read_vps: Pseudopotential includes a core correction:
read_vps: Pseudo-core for xc-correction

xc_check: Exchange-correlation functional:
xc_check: GGA Perdew, Burke & Ernzerhof 1996
V l=0 = -2*Zval/r beyond r=  1.5227
V l=1 = -2*Zval/r beyond r=  1.5227
V l=2 = -2*Zval/r beyond r=  1.5227
V l=3 = -2*Zval/r beyond r=  1.5038
All V_l potentials equal beyond r=  1.5227
This should be close to max(r_c) in ps generation
All pots = -2*Zval/r beyond r=  1.5227

VLOCAL1: 99.0% of the norm of Vloc inside     18.722 Ry
VLOCAL1: 99.9% of the norm of Vloc inside     42.668 Ry
atom: Maximum radius for 4*pi*r*r*local-pseudopot. charge    1.83678
atom: Maximum radius for r*vlocal+2*Zval:    1.58088
GHOST: No ghost state for L =  0
GHOST: No ghost state for L =  1
GHOST: No ghost state for L =  2
GHOST: No ghost state for L =  3

KBgen: Kleinman-Bylander projectors: 
   l= 0   rc=  1.704034   el= -1.009801   Ekb=  5.335044   kbcos=  0.316824
   l= 1   rc=  1.704034   el= -0.388707   Ekb= -3.785862   kbcos= -0.366464
   l= 2   rc=  1.791422   el=  0.001971   Ekb= -0.970471   kbcos= -0.009212
   l= 3   rc=  1.859892   el=  0.003065   Ekb= -0.399525   kbcos= -0.001223

KBgen: Total number of Kleinman-Bylander projectors:   16
atom: -------------------------------------------------------------------------

atom: SANKEY-TYPE ORBITALS:
atom: Selected multiple-zeta basis: split     

SPLIT: Orbitals with angular momentum L= 0

SPLIT: Basis orbitals for state 2s

SPLIT: PAO cut-off radius determined from an
SPLIT: energy shift=  0.020000 Ry

   izeta = 1
                 lambda =    1.000000
                     rc =    4.088342
                 energy =   -0.989105
                kinetic =    0.904439
    potential(screened) =   -1.893544
       potential(ionic) =   -5.484581

   izeta = 2
                 rmatch =    3.347176
              splitnorm =    0.150000
                 energy =   -0.835603
                kinetic =    1.364067
    potential(screened) =   -2.199670
       potential(ionic) =   -6.017020

SPLIT: Orbitals with angular momentum L= 1

SPLIT: Basis orbitals for state 2p

SPLIT: PAO cut-off radius determined from an
SPLIT: energy shift=  0.020000 Ry

   izeta = 1
                 lambda =    1.000000
                     rc =    4.870301
                 energy =   -0.368906
                kinetic =    2.520369
    potential(screened) =   -2.889275
       potential(ionic) =   -6.370528

   izeta = 2
                 rmatch =    3.475094
              splitnorm =    0.150000
                 energy =   -0.205913
                kinetic =    3.767535
    potential(screened) =   -3.973448
       potential(ionic) =   -7.809680

POLgen: Perturbative polarization orbital with L=  2

POLgen: Polarization orbital for state 2p

   izeta = 1
                     rc =    4.870301
                 energy =    1.296434
                kinetic =    2.645086
    potential(screened) =   -1.348652
       potential(ionic) =   -4.303965
atom: Total number of Sankey-type orbitals: 13

atm_pop: Valence configuration (for local Pseudopot. screening):
 2s( 2.00)                                                            
 2p( 2.00)                                                            
Vna: chval, zval:    4.00000   4.00000

Vna:  Cut-off radius for the neutral-atom potential:   4.870301
comcore: Pseudo-core radius Rcore=  1.791422

atom: _________________________________________________________________________

<basis_specs>
===============================================================================
H                    Z=   1    Mass=  1.0100        Charge= 0.17977+309
Lmxo=0 Lmxkb= 2    BasisType=split      Semic=F
L=0  Nsemic=0  Cnfigmx=1
          i=1  nzeta=1  polorb=1  (1s)
            splnorm:   0.15000    
               vcte:    0.0000    
               rinn:    0.0000    
               qcoe:    0.0000    
               qyuk:    0.0000    
               qwid:   0.10000E-01
                rcs:    0.0000    
            lambdas:    1.0000    
-------------------------------------------------------------------------------
L=0  Nkbl=1  erefs: 0.17977+309
L=1  Nkbl=1  erefs: 0.17977+309
L=2  Nkbl=1  erefs: 0.17977+309
===============================================================================
</basis_specs>

atom: Called for H                     (Z =   1)

read_vps: Pseudopotential generation method:
read_vps: ATM3      Troullier-Martins                       
Valence charge for ps generation:    1.00000

xc_check: Exchange-correlation functional:
xc_check: GGA Perdew, Burke & Ernzerhof 1996
V l=0 = -2*Zval/r beyond r=  1.2977
V l=1 = -2*Zval/r beyond r=  1.2815
V l=2 = -2*Zval/r beyond r=  1.2656
All V_l potentials equal beyond r=  1.2977
This should be close to max(r_c) in ps generation
All pots = -2*Zval/r beyond r=  1.2977

VLOCAL1: 99.0% of the norm of Vloc inside     25.776 Ry
VLOCAL1: 99.9% of the norm of Vloc inside     58.745 Ry
atom: Maximum radius for 4*pi*r*r*local-pseudopot. charge    1.52711
atom: Maximum radius for r*vlocal+2*Zval:    1.28155
GHOST: No ghost state for L =  0
GHOST: No ghost state for L =  1
GHOST: No ghost state for L =  2

KBgen: Kleinman-Bylander projectors: 
   l= 0   rc=  1.434438   el= -0.477200   Ekb= -1.957043   kbcos= -0.361614
   l= 1   rc=  1.508111   el=  0.001076   Ekb= -0.424224   kbcos= -0.025441
   l= 2   rc=  1.527112   el=  0.002010   Ekb= -0.378578   kbcos= -0.002010

KBgen: Total number of Kleinman-Bylander projectors:    9
atom: -------------------------------------------------------------------------

atom: SANKEY-TYPE ORBITALS:

SPLIT: Orbitals with angular momentum L= 0

SPLIT: Basis orbitals for state 1s

SPLIT: PAO cut-off radius determined from an
SPLIT: energy shift=  0.020000 Ry

   izeta = 1
                 lambda =    1.000000
                     rc =    4.708991
                 energy =   -0.457754
                kinetic =    0.977134
    potential(screened) =   -1.434888
       potential(ionic) =   -1.963073

POLgen: Perturbative polarization orbital with L=  1

POLgen: Polarization orbital for state 1s

   izeta = 1
                     rc =    4.708991
                 energy =    0.764959
                kinetic =    1.478379
    potential(screened) =   -0.713420
       potential(ionic) =   -1.205754
atom: Total number of Sankey-type orbitals:  4

atm_pop: Valence configuration (for local Pseudopot. screening):
 1s( 1.00)                                                            
Vna: chval, zval:    1.00000   1.00000

Vna:  Cut-off radius for the neutral-atom potential:   4.708991

atom: _________________________________________________________________________

<basis_specs>
===============================================================================
N                    Z=   7    Mass=  14.010        Charge= 0.17977+309
Lmxo=1 Lmxkb= 3    BasisType=split      Semic=F
L=0  Nsemic=0  Cnfigmx=2
          i=1  nzeta=2  polorb=0  (2s)
            splnorm:   0.15000    
               vcte:    0.0000    
               rinn:    0.0000    
               qcoe:    0.0000    
               qyuk:    0.0000    
               qwid:   0.10000E-01
                rcs:    0.0000      0.0000    
            lambdas:    1.0000      1.0000    
L=1  Nsemic=0  Cnfigmx=2
          i=1  nzeta=2  polorb=1  (2p)
            splnorm:   0.15000    
               vcte:    0.0000    
               rinn:    0.0000    
               qcoe:    0.0000    
               qyuk:    0.0000    
               qwid:   0.10000E-01
                rcs:    0.0000      0.0000    
            lambdas:    1.0000      1.0000    
-------------------------------------------------------------------------------
L=0  Nkbl=1  erefs: 0.17977+309
L=1  Nkbl=1  erefs: 0.17977+309
L=2  Nkbl=1  erefs: 0.17977+309
L=3  Nkbl=1  erefs: 0.17977+309
===============================================================================
</basis_specs>

atom: Called for N                     (Z =   7)

read_vps: Pseudopotential generation method:
read_vps: ATM3      Troullier-Martins                       
Valence charge for ps generation:    5.00000

read_vps: Pseudopotential includes a core correction:
read_vps: Pseudo-core for xc-correction

xc_check: Exchange-correlation functional:
xc_check: GGA Perdew, Burke & Ernzerhof 1996
V l=0 = -2*Zval/r beyond r=  1.4606
V l=1 = -2*Zval/r beyond r=  1.4606
V l=2 = -2*Zval/r beyond r=  1.4606
V l=3 = -2*Zval/r beyond r=  1.4606
All V_l potentials equal beyond r=  1.4606
This should be close to max(r_c) in ps generation
All pots = -2*Zval/r beyond r=  1.4606

VLOCAL1: 99.0% of the norm of Vloc inside     20.347 Ry
VLOCAL1: 99.9% of the norm of Vloc inside     46.372 Ry
atom: Maximum radius for 4*pi*r*r*local-pseudopot. charge    1.76189
atom: Maximum radius for r*vlocal+2*Zval:    1.53550
GHOST: No ghost state for L =  0
GHOST: No ghost state for L =  1
GHOST: No ghost state for L =  2
GHOST: No ghost state for L =  3

KBgen: Kleinman-Bylander projectors: 
   l= 0   rc=  1.634559   el= -1.363963   Ekb=  5.296955   kbcos=  0.335621
   l= 1   rc=  1.614250   el= -0.521451   Ekb= -5.259161   kbcos= -0.433408
   l= 2   rc=  1.718383   el=  0.001991   Ekb= -1.271464   kbcos= -0.007566
   l= 3   rc=  1.761893   el=  0.003093   Ekb= -0.494769   kbcos= -0.001015

KBgen: Total number of Kleinman-Bylander projectors:   16
atom: -------------------------------------------------------------------------

atom: SANKEY-TYPE ORBITALS:
atom: Selected multiple-zeta basis: split     

SPLIT: Orbitals with angular momentum L= 0

SPLIT: Basis orbitals for state 2s

SPLIT: PAO cut-off radius determined from an
SPLIT: energy shift=  0.020000 Ry

   izeta = 1
                 lambda =    1.000000
                     rc =    3.683980
                 energy =   -1.346493
                kinetic =    1.217702
    potential(screened) =   -2.564196
       potential(ionic) =   -8.121417

   izeta = 2
                 rmatch =    2.869008
              splitnorm =    0.150000
                 energy =   -1.143688
                kinetic =    1.842239
    potential(screened) =   -2.985927
       potential(ionic) =   -8.929748

SPLIT: Orbitals with angular momentum L= 1

SPLIT: Basis orbitals for state 2p

SPLIT: PAO cut-off radius determined from an
SPLIT: energy shift=  0.020000 Ry

   izeta = 1
                 lambda =    1.000000
                     rc =    4.280232
                 energy =   -0.501066
                kinetic =    3.581781
    potential(screened) =   -4.082847
       potential(ionic) =   -9.491389

   izeta = 2
                 rmatch =    2.905100
              splitnorm =    0.150000
                 energy =   -0.269325
                kinetic =    5.375034
    potential(screened) =   -5.644358
       potential(ionic) =  -11.640447

POLgen: Perturbative polarization orbital with L=  2

POLgen: Polarization orbital for state 2p

   izeta = 1
                     rc =    4.280232
                 energy =    1.846098
                kinetic =    3.706851
    potential(screened) =   -1.860753
       potential(ionic) =   -6.377604
atom: Total number of Sankey-type orbitals: 13

atm_pop: Valence configuration (for local Pseudopot. screening):
 2s( 2.00)                                                            
 2p( 3.00)                                                            
Vna: chval, zval:    5.00000   5.00000

Vna:  Cut-off radius for the neutral-atom potential:   4.280232
comcore: Pseudo-core radius Rcore=  1.554824

atom: _________________________________________________________________________

prinput: Basis input ----------------------------------------------------------

PAO.BasisType split     

%block ChemicalSpeciesLabel
    1    6 C                       # Species index, atomic number, species label
    2    1 H                       # Species index, atomic number, species label
    3    7 N                       # Species index, atomic number, species label
%endblock ChemicalSpeciesLabel

%block PAO.Basis                 # Define Basis set
C                     2                    # Species label, number of l-shells
 n=2   0   2                         # n, l, Nzeta 
   4.088      3.347   
   1.000      1.000   
 n=2   1   2 P   1                   # n, l, Nzeta, Polarization, NzetaPol
   4.870      3.475   
   1.000      1.000   
H                     1                    # Species label, number of l-shells
 n=1   0   1 P   1                   # n, l, Nzeta, Polarization, NzetaPol
   4.709   
   1.000   
N                     2                    # Species label, number of l-shells
 n=2   0   2                         # n, l, Nzeta 
   3.684      2.869   
   1.000      1.000   
 n=2   1   2 P   1                   # n, l, Nzeta, Polarization, NzetaPol
   4.280      2.905   
   1.000      1.000   
%endblock PAO.Basis

prinput: ----------------------------------------------------------------------

Dumping basis to NetCDF file C.ion.nc
Dumping basis to NetCDF file H.ion.nc
Dumping basis to NetCDF file N.ion.nc
coor:   Atomic-coordinates input format  =     Cartesian coordinates
coor:                                          (in Angstroms)

ioxv: Reading coordinates and velocities from file
! Info in XV file prevails over previous structure input
WARNING: CH2+CN+NH2.VERLET_RESTART not found--reading only XV file and moving back 1 time step using Euler

siesta: Atomic coordinates (Bohr) and species
siesta:      0.00000   0.00000   0.00000  1        1
siesta:      0.00000  -1.00000   2.66000  2        2
siesta:      0.00000  -1.00000  -2.66000  2        3
siesta:      4.00500   0.50000   0.00000  3        4
siesta:      4.00500   1.50000  -2.66000  2        5
siesta:      4.00500   1.50000   2.66000  2        6
siesta:     -3.00500  -1.00000   0.00000  1        7
siesta:     -5.00500  -3.00000   0.00000  3        8

siesta: System type = chain     

initatomlists: Number of atoms, orbitals, and projectors:      8    68   100

coxmol: Writing XMOL coordinates into file CH2+CN+NH2.xyz                                                      

siesta: ******************** Simulation parameters ****************************
siesta:
siesta: The following are some of the parameters of the simulation.
siesta: A complete list of the parameters used, including default values,
siesta: can be found in file out.fdf
siesta:
redata: Spin configuration                          = none
redata: Number of spin components                   = 1
redata: Time-Reversal Symmetry                      = T
redata: Spin spiral                                 = F
redata: Long output                                 =   F
redata: Number of Atomic Species                    =        3
redata: Charge density info will appear in .RHO file
redata: Write Mulliken Pop.                         = NO
redata: Matel table size (NRTAB)                    =     1024
redata: Mesh Cutoff                                 =   200.0000 Ry
redata: Net charge of the system                    =     0.0000 |e|
redata: Min. number of SCF Iter                     =        0
redata: Max. number of SCF Iter                     =      150
redata: SCF convergence failure will abort job
redata: SCF mix quantity                            = Hamiltonian
redata: Mix DM or H after convergence               =   F
redata: Recompute H after scf cycle                 =   F
redata: Mix DM in first SCF step                    =   T
redata: Write Pulay info on disk                    =   F
redata: New DM Occupancy tolerance                  = 0.000000000001
redata: No kicks to SCF
redata: DM Mixing Weight for Kicks                  =     0.5000
redata: Require Harris convergence for SCF          =   F
redata: Harris energy tolerance for SCF             =     0.000100 eV
redata: Require DM convergence for SCF              =   T
redata: DM tolerance for SCF                        =     0.000300
redata: Require EDM convergence for SCF             =   F
redata: EDM tolerance for SCF                       =     0.001000 eV
redata: Require H convergence for SCF               =   T
redata: Hamiltonian tolerance for SCF               =     0.001000 eV
redata: Require (free) Energy convergence for SCF   =   F
redata: (free) Energy tolerance for SCF             =     0.000100 eV
redata: Using Saved Data (generic)                  =   F
redata: Use continuation files for DM               =   F
redata: Neglect nonoverlap interactions             =   F
redata: Method of Calculation                       = Diagonalization
redata: Electronic Temperature                      =   290.1109 K
redata: Fix the spin of the system                  =   F
redata: Dynamics option                             = Verlet MD run
redata: Initial MD time step                        =        1
redata:   Final MD time step                        =       50
redata: Length of MD time step                      =     0.5000 fs
redata: Initial Temperature of MD run               =     0.0000 K
redata: Perform a MD quench                         =   F
mix.SCF: Pulay mixing                            = Pulay
mix.SCF:    Variant                              = stable
mix.SCF:    History steps                        = 6
mix.SCF:    Linear mixing weight                 =     0.020000
mix.SCF:    Mixing weight                        =     0.020000
mix.SCF:    SVD condition                        = 0.1000E-07
redata: Save all siesta data in one NC              =   F
redata: ***********************************************************************

%block SCF.Mixers
  Pulay
%endblock SCF.Mixers

%block SCF.Mixer.Pulay
  # Mixing method
  method pulay
  variant stable

  # Mixing options
  weight 0.0200
  weight.linear 0.0200
  history 6
%endblock SCF.Mixer.Pulay

Size of DM history Fstack: 1
Total number of electrons:    22.000000
Total ionic charge:    22.000000

* ProcessorY, Blocksize:    1  24


* Orbital distribution balance (max,min):    68    68

 Kpoints in:            1 . Kpoints trimmed:            1

siesta: k-grid: Number of k-points =     1
siesta: k-grid: Cutoff (effective) =     3.969 Ang
siesta: k-grid: Supercell and displacements
siesta: k-grid:    1   0   0      0.000
siesta: k-grid:    0   1   0      0.000
siesta: k-grid:    0   0   1      0.000

diag: Algorithm                                     = D&C
diag: Parallel over k                               =   F
diag: Use parallel 2D distribution                  =   F
diag: Parallel block-size                           = 24
diag: Parallel distribution                         =     1 x     1
diag: Used triangular part                          = Lower
diag: Absolute tolerance                            =  0.100E-15
diag: Orthogonalization factor                      =  0.100E-05
diag: Memory factor                                 =  1.0000


ts: **************************************************************
ts: Save H and S matrices                           =    F
ts: Save DM and EDM matrices                        =    F
ts: Only save the overlap matrix S                  =    F
ts: **************************************************************

************************ Begin: TS CHECKS AND WARNINGS ************************
************************ End: TS CHECKS AND WARNINGS **************************


                     ====================================
                        Begin MD step =      1
                     ====================================

outcell: Unit cell vectors (Ang):
        7.937655    0.000000    0.000000
        0.000000    7.937655    0.000000
        0.000000    0.000000    7.937655

outcell: Cell vector modules (Ang)   :    7.937655    7.937655    7.937655
outcell: Cell angles (23,13,12) (deg):     90.0000     90.0000     90.0000
outcell: Cell volume (Ang**3)        :    500.1228
Gamma-point calculation with multiply-connected orbital pairs
Gamma-point calculation with multiply-connected orbital pairs
Folding of H and S implicitly performed
Folding of H and S implicitly performed
<dSpData1D:S at geom step 1
  <sparsity:sparsity for geom step 1
    nrows_g=68 nrows=68 sparsity=.9758 nnzs=4512, refcount: 7>
  <dData1D:(new from dSpData1D) n=4512, refcount: 1>
refcount: 1>
new_DM -- step:     1
Initializing Density Matrix...
DM filled with atomic data:
<dSpData2D:DM initialized from atoms
  <sparsity:sparsity for geom step 1
    nrows_g=68 nrows=68 sparsity=.9758 nnzs=4512, refcount: 8>
  <dData2D:DM n=4512 m=1, refcount: 1>
refcount: 1>
No. of atoms with KB's overlaping orbs in proc 0. Max # of overlaps:       8      63
New grid distribution:   1
           1       1:   36    1:   36    1:   36

InitMesh: MESH =    72 x    72 x    72 =      373248
InitMesh: (bp) =    36 x    36 x    36 =       46656
InitMesh: Mesh cutoff (required, used) =   200.000   227.396 Ry
ExtMesh (bp) on 0 =    84 x    84 x    84 =      592704
PhiOnMesh: Number of (b)points on node 0 =                46656
PhiOnMesh: nlist on node 0 =               355446

stepf: Fermi-Dirac step function

siesta: Program's energy decomposition (eV):
siesta: Ebs     =      -236.301230
siesta: Eions   =      1418.860585
siesta: Ena     =       261.978184
siesta: Ekin    =       567.645474
siesta: Enl     =       -78.262971
siesta: Eso     =         0.000000
siesta: Edftu   =         0.000000
siesta: DEna    =        19.313136
siesta: DUscf   =         4.737875
siesta: DUext   =         0.000000
siesta: Exc     =      -284.589389
siesta: eta*DQ  =         0.000000
siesta: Emadel  =         0.000000
siesta: Emeta   =         0.000000
siesta: Emolmec =         0.000000
siesta: Ekinion =         0.000000
siesta: Eharris =      -939.812536
siesta: Etot    =      -928.038276
siesta: FreeEng =      -928.038276

        iscf     Eharris(eV)        E_KS(eV)     FreeEng(eV)     dDmax    Ef(eV) dHmax(eV)
   scf:    1     -939.812536     -928.038276     -928.038276  1.500316 -4.800135  7.178768
timer: Routine,Calls,Time,% = IterSCF        1       2.074  23.64
   scf:    2     -929.280557     -928.681520     -928.681520  0.023154 -4.836492  6.082773
   scf:    3     -929.868351     -930.384473     -930.384473  0.165470 -4.963485  1.543212
   scf:    4     -930.499885     -930.459607     -930.459607  0.026432 -4.955712  1.010736
   scf:    5     -929.937693     -930.360421     -930.360421  0.104502 -5.000177  1.998292
   scf:    6     -929.780405     -930.411151     -930.411151  0.139144 -5.032655  2.062375
   scf:    7     -929.584355     -930.373397     -930.373397  0.129086 -5.088851  2.218597
   scf:    8     -930.557109     -930.608030     -930.608030  0.097058 -5.068788  0.616936
   scf:    9     -930.394578     -930.560529     -930.560529  0.084910 -5.033968  1.368755
   scf:   10     -930.616025     -930.622675     -930.622675  0.062077 -5.065117  0.146431
   scf:   11     -930.607118     -930.619273     -930.619273  0.027400 -5.054483  0.386733
   scf:   12     -930.624871     -930.624858     -930.624858  0.013043 -5.055959  0.034168
   scf:   13     -930.624732     -930.624851     -930.624851  0.002050 -5.054085  0.043738
   scf:   14     -930.624917     -930.624914     -930.624914  0.001453 -5.055127  0.027014
   scf:   15     -930.624954     -930.624936     -930.624936  0.000817 -5.054433  0.022794
   scf:   16     -930.624951     -930.624946     -930.624946  0.000246 -5.052744  0.021188
   scf:   17     -930.624955     -930.624971     -930.624971  0.002178 -5.049930  0.013536
   scf:   18     -930.624975     -930.624973     -930.624973  0.000039 -5.049859  0.012400
   scf:   19     -930.625024     -930.625003     -930.625003  0.001397 -5.047319  0.003144
   scf:   20     -930.625004     -930.625003     -930.625003  0.000026 -5.047252  0.002855
   scf:   21     -930.625004     -930.625004     -930.625004  0.000133 -5.046880  0.000900

SCF Convergence by DM+H criterion
max |DM_out - DM_in|         :     0.0001332572
max |H_out - H_in|      (eV) :     0.0009000598
SCF cycle converged after 21 iterations

Using DM_out to compute the final energy and forces
No. of atoms with KB's overlaping orbs in proc 0. Max # of overlaps:       8      63

siesta: E_KS(eV) =             -930.6250

siesta: E_KS - E_eggbox =      -930.6250

siesta: Atomic forces (eV/Ang):
----------------------------------------
   Tot   -0.014864   -0.012015    0.000000
----------------------------------------
   Max    8.879589
   Res    3.651803    sqrt( Sum f_i^2 / 3N )
----------------------------------------
   Max    8.879589    constrained

Stress tensor Voigt[x,y,z,yz,xz,xy] (kbar):       68.75       37.91       73.26       -0.00        0.00       36.60
(Free)E + p*V (eV/cell)     -949.3464
Target enthalpy (eV/cell)     -930.6250

siesta: Stress tensor (static) (eV/Ang**3):
         0.043157    0.022845    0.000000
         0.022845    0.023662   -0.000000
         0.000000   -0.000000    0.045726

siesta: Pressure (static):        -60.10630507  kBar

siesta: Stress tensor (total) (eV/Ang**3):
         0.042913    0.022845    0.000000
         0.022845    0.023662   -0.000000
         0.000000   -0.000000    0.045726

siesta: Pressure (total):        -59.97598242  kBar

siesta: Temp_ion =      67.931 K

                     ====================================
                        Begin MD step =      2
                     ====================================

outcell: Unit cell vectors (Ang):
        7.937655    0.000000    0.000000
        0.000000    7.937655    0.000000
        0.000000    0.000000    7.937655

outcell: Cell vector modules (Ang)   :    7.937655    7.937655    7.937655
outcell: Cell angles (23,13,12) (deg):     90.0000     90.0000     90.0000
outcell: Cell volume (Ang**3)        :    500.1228
Gamma-point calculation with multiply-connected orbital pairs
Gamma-point calculation with multiply-connected orbital pairs
Folding of H and S implicitly performed
Folding of H and S implicitly performed
<dSpData1D:S at geom step 2
  <sparsity:sparsity for geom step 2
    nrows_g=68 nrows=68 sparsity=.9758 nnzs=4512, refcount: 7>
  <dData1D:(new from dSpData1D) n=4512, refcount: 1>
refcount: 1>
new_DM -- step:     2
Re-using DM from previous geometries...
Number of DMs in history: 1
 DM extrapolation coefficients: 
1   1.00000
New DM after history re-use:
<dSpData2D:SpM extrapolated using coords
  <sparsity:sparsity for geom step 2
    nrows_g=68 nrows=68 sparsity=.9758 nnzs=4512, refcount: 9>
  <dData2D:(temp array for extrapolation) n=4512 m=1, refcount: 1>
refcount: 1>
No. of atoms with KB's overlaping orbs in proc 0. Max # of overlaps:       8      63
New grid distribution:   1
           1       1:   36    1:   36    1:   36

InitMesh: MESH =    72 x    72 x    72 =      373248
InitMesh: (bp) =    36 x    36 x    36 =       46656
InitMesh: Mesh cutoff (required, used) =   200.000   227.396 Ry
ExtMesh (bp) on 0 =    84 x    84 x    84 =      592704
PhiOnMesh: Number of (b)points on node 0 =                46656
PhiOnMesh: nlist on node 0 =               355433

        iscf     Eharris(eV)        E_KS(eV)     FreeEng(eV)     dDmax    Ef(eV) dHmax(eV)
   scf:    1     -930.671928     -930.740782     -930.740782  0.009106 -5.048150  0.325720
   scf:    2     -930.100175     -930.537200     -930.537200  0.050903 -5.019580  2.354279
   scf:    3     -930.767999     -930.744273     -930.744273  0.045107 -5.044620  0.053095
   scf:    4     -930.744354     -930.744320     -930.744320  0.000441 -5.043693  0.047293
   scf:    5     -930.744296     -930.744380     -930.744380  0.001537 -5.040927  0.030699
   scf:    6     -930.744353     -930.744417     -930.744417  0.002367 -5.040271  0.017327
   scf:    7     -930.744377     -930.744422     -930.744422  0.001333 -5.039535  0.016309
   scf:    8     -930.744430     -930.744426     -930.744426  0.000067 -5.039614  0.014060
   scf:    9     -930.744436     -930.744435     -930.744435  0.000566 -5.039747  0.000501
   scf:   10     -930.744435     -930.744435     -930.744435  0.000002 -5.039743  0.000484

SCF Convergence by DM+H criterion
max |DM_out - DM_in|         :     0.0000015308
max |H_out - H_in|      (eV) :     0.0004835233
SCF cycle converged after 10 iterations

Using DM_out to compute the final energy and forces
No. of atoms with KB's overlaping orbs in proc 0. Max # of overlaps:       8      63

siesta: E_KS(eV) =             -930.7444

siesta: Atomic forces (eV/Ang):
----------------------------------------
   Tot   -0.017194   -0.013813    0.000000
----------------------------------------
   Max    8.876823
   Res    3.655904    sqrt( Sum f_i^2 / 3N )
----------------------------------------
   Max    8.876823    constrained

Stress tensor Voigt[x,y,z,yz,xz,xy] (kbar):       68.44       37.85       73.18       -0.00        0.00       36.53
(Free)E + p*V (eV/cell)     -949.4172
Target enthalpy (eV/cell)     -930.7444

siesta: Stress tensor (static) (eV/Ang**3):
         0.042959    0.022801    0.000000
         0.022801    0.023623   -0.000000
         0.000000   -0.000000    0.045672

siesta: Pressure (static):        -59.95051163  kBar

siesta: Stress tensor (total) (eV/Ang**3):
         0.042714    0.022801    0.000000
         0.022801    0.023623   -0.000000
         0.000000   -0.000000    0.045672

siesta: Pressure (total):        -59.82018898  kBar

siesta: Temp_ion =     200.057 K

                     ====================================
                        Begin MD step =      3
                     ====================================

outcell: Unit cell vectors (Ang):
        7.937655    0.000000    0.000000
        0.000000    7.937655    0.000000
        0.000000    0.000000    7.937655

outcell: Cell vector modules (Ang)   :    7.937655    7.937655    7.937655
outcell: Cell angles (23,13,12) (deg):     90.0000     90.0000     90.0000
outcell: Cell volume (Ang**3)        :    500.1228
Gamma-point calculation with multiply-connected orbital pairs
Gamma-point calculation with multiply-connected orbital pairs
Folding of H and S implicitly performed
Folding of H and S implicitly performed
<dSpData1D:S at geom step 3
  <sparsity:sparsity for geom step 3
    nrows_g=68 nrows=68 sparsity=.9758 nnzs=4512, refcount: 7>
  <dData1D:(new from dSpData1D) n=4512, refcount: 1>
refcount: 1>
new_DM -- step:     3
Re-using DM from previous geometries...
Number of DMs in history: 1
 DM extrapolation coefficients: 
1   1.00000
New DM after history re-use:
<dSpData2D:SpM extrapolated using coords
  <sparsity:sparsity for geom step 3
    nrows_g=68 nrows=68 sparsity=.9758 nnzs=4512, refcount: 9>
  <dData2D:(temp array for extrapolation) n=4512 m=1, refcount: 1>
refcount: 1>
Note: For starting DM, Qtot, Tr[D*S] =         22.00000000         22.04533604
No. of atoms with KB's overlaping orbs in proc 0. Max # of overlaps:       8      63
New grid distribution:   1
           1       1:   36    1:   36    1:   36

InitMesh: MESH =    72 x    72 x    72 =      373248
InitMesh: (bp) =    36 x    36 x    36 =       46656
InitMesh: Mesh cutoff (required, used) =   200.000   227.396 Ry
ExtMesh (bp) on 0 =    84 x    84 x    84 =      592704
PhiOnMesh: Number of (b)points on node 0 =                46656
PhiOnMesh: nlist on node 0 =               355510

        iscf     Eharris(eV)        E_KS(eV)     FreeEng(eV)     dDmax    Ef(eV) dHmax(eV)
   scf:    1     -930.877613     -931.059413     -931.059413  0.026642 -5.055411  0.710919
   scf:    2     -928.554256     -930.263918     -930.263918  0.100510 -4.961641  4.807949
   scf:    3     -931.164983     -931.073956     -931.073956  0.088983 -5.043701  0.166889
   scf:    4     -931.074467     -931.074266     -931.074266  0.001134 -5.040763  0.150236
   scf:    5     -931.074848     -931.075120     -931.075121  0.004593 -5.029569  0.065961
   scf:    6     -931.075027     -931.075321     -931.075321  0.005317 -5.027529  0.038383
   scf:    7     -931.074311     -931.075121     -931.075121  0.004511 -5.024536  0.074905
   scf:    8     -931.075522     -931.075380     -931.075380  0.001447 -5.025814  0.032333
   scf:    9     -931.075433     -931.075429     -931.075429  0.001310 -5.026121  0.001308
   scf:   10     -931.075429     -931.075429     -931.075429  0.000032 -5.026120  0.001077
   scf:   11     -931.075429     -931.075429     -931.075429  0.000013 -5.026117  0.000971

SCF Convergence by DM+H criterion
max |DM_out - DM_in|         :     0.0000129818
max |H_out - H_in|      (eV) :     0.0009711548
SCF cycle converged after 11 iterations

Using DM_out to compute the final energy and forces
No. of atoms with KB's overlaping orbs in proc 0. Max # of overlaps:       8      63

siesta: E_KS(eV) =             -931.0754

siesta: Atomic forces (eV/Ang):
----------------------------------------
   Tot    0.007849   -0.015182    0.000000
----------------------------------------
   Max    8.868942
   Res    3.665925    sqrt( Sum f_i^2 / 3N )
----------------------------------------
   Max    8.868942    constrained

Stress tensor Voigt[x,y,z,yz,xz,xy] (kbar):       67.42       37.56       72.54       -0.00        0.00       36.24
(Free)E + p*V (eV/cell)     -949.5459
Target enthalpy (eV/cell)     -931.0754

siesta: Stress tensor (static) (eV/Ang**3):
         0.042426    0.022677    0.000000
         0.022677    0.023497   -0.000000
         0.000000   -0.000000    0.045591

siesta: Pressure (static):        -59.55566443  kBar

siesta: Stress tensor (total) (eV/Ang**3):
         0.042077    0.022619    0.000000
         0.022619    0.023441   -0.000000
         0.000000   -0.000000    0.045278

siesta: Pressure (total):        -59.17186577  kBar

siesta: Temp_ion =     566.244 K

                     ====================================
                        Begin MD step =      4
                     ====================================

outcell: Unit cell vectors (Ang):
        7.937655    0.000000    0.000000
        0.000000    7.937655    0.000000
        0.000000    0.000000    7.937655

outcell: Cell vector modules (Ang)   :    7.937655    7.937655    7.937655
outcell: Cell angles (23,13,12) (deg):     90.0000     90.0000     90.0000
outcell: Cell volume (Ang**3)        :    500.1228
Gamma-point calculation with multiply-connected orbital pairs
Gamma-point calculation with multiply-connected orbital pairs
Folding of H and S implicitly performed
Folding of H and S implicitly performed
<dSpData1D:S at geom step 4
  <sparsity:sparsity for geom step 4
    nrows_g=68 nrows=68 sparsity=.9758 nnzs=4512, refcount: 7>
  <dData1D:(new from dSpData1D) n=4512, refcount: 1>
refcount: 1>
new_DM -- step:     4
Re-using DM from previous geometries...
Number of DMs in history: 1
 DM extrapolation coefficients: 
1   1.00000
New DM after history re-use:
<dSpData2D:SpM extrapolated using coords
  <sparsity:sparsity for geom step 4
    nrows_g=68 nrows=68 sparsity=.9758 nnzs=4512, refcount: 9>
  <dData2D:(temp array for extrapolation) n=4512 m=1, refcount: 1>
refcount: 1>
Note: For starting DM, Qtot, Tr[D*S] =         22.00000000         22.07367338
No. of atoms with KB's overlaping orbs in proc 0. Max # of overlaps:       8      63
New grid distribution:   1
           1       1:   36    1:   36    1:   36

InitMesh: MESH =    72 x    72 x    72 =      373248
InitMesh: (bp) =    36 x    36 x    36 =       46656
InitMesh: Mesh cutoff (required, used) =   200.000   227.396 Ry
ExtMesh (bp) on 0 =    84 x    84 x    84 =      592704
PhiOnMesh: Number of (b)points on node 0 =                46656
PhiOnMesh: nlist on node 0 =               355362

        iscf     Eharris(eV)        E_KS(eV)     FreeEng(eV)     dDmax    Ef(eV) dHmax(eV)
   scf:    1     -931.269957     -931.587423     -931.587423  0.044565 -5.056418  1.074719
   scf:    2     -926.108054     -929.845475     -929.845475  0.153575 -4.908395  7.155999
   scf:    3     -931.805397     -931.618957     -931.618957  0.139091 -5.038438  0.274786
   scf:    4     -931.620051     -931.619683     -931.619683  0.001900 -5.033841  0.252385
   scf:    5     -931.621669     -931.622184     -931.622184  0.007495 -5.013188  0.101304
   scf:    6     -931.621664     -931.622614     -931.622615  0.008992 -5.009408  0.071516
   scf:    7     -931.619863     -931.622095     -931.622095  0.007679 -5.007156  0.122014
   scf:    8     -931.623166     -931.622832     -931.622832  0.002440 -5.006300  0.053097
   scf:    9     -931.622984     -931.622960     -931.622960  0.001995 -5.006930  0.002905
   scf:   10     -931.622961     -931.622961     -931.622961  0.000059 -5.007031  0.001642
   scf:   11     -931.622961     -931.622961     -931.622961  0.000009 -5.007028  0.001562
   scf:   12     -931.622962     -931.622961     -931.622961  0.000098 -5.006665  0.000689

SCF Convergence by DM+H criterion
max |DM_out - DM_in|         :     0.0000979554
max |H_out - H_in|      (eV) :     0.0006892110
SCF cycle converged after 12 iterations

Using DM_out to compute the final energy and forces
No. of atoms with KB's overlaping orbs in proc 0. Max # of overlaps:       8      63

siesta: E_KS(eV) =             -931.6230

siesta: Atomic forces (eV/Ang):
----------------------------------------
   Tot   -0.005415   -0.012502    0.000000
----------------------------------------
   Max    8.852653
   Res    3.678707    sqrt( Sum f_i^2 / 3N )
----------------------------------------
   Max    8.852653    constrained

Stress tensor Voigt[x,y,z,yz,xz,xy] (kbar):       65.81       36.97       70.40        0.00        0.00       35.59
(Free)E + p*V (eV/cell)     -949.6423
Target enthalpy (eV/cell)     -931.6230

siesta: Stress tensor (static) (eV/Ang**3):
         0.041626    0.022419    0.000000
         0.022418    0.023298   -0.000000
         0.000000    0.000000    0.045200

siesta: Pressure (static):        -58.81302905  kBar

siesta: Stress tensor (total) (eV/Ang**3):
         0.041075    0.022211    0.000000
         0.022211    0.023074   -0.000000
         0.000000    0.000000    0.043940

siesta: Pressure (total):        -57.72672202  kBar

siesta: Temp_ion =    1171.780 K

                     ====================================
                        Begin MD step =      5
                     ====================================

outcell: Unit cell vectors (Ang):
        7.937655    0.000000    0.000000
        0.000000    7.937655    0.000000
        0.000000    0.000000    7.937655

outcell: Cell vector modules (Ang)   :    7.937655    7.937655    7.937655
outcell: Cell angles (23,13,12) (deg):     90.0000     90.0000     90.0000
outcell: Cell volume (Ang**3)        :    500.1228
Gamma-point calculation with multiply-connected orbital pairs
Gamma-point calculation with multiply-connected orbital pairs
Folding of H and S implicitly performed
Folding of H and S implicitly performed
<dSpData1D:S at geom step 5
  <sparsity:sparsity for geom step 5
    nrows_g=68 nrows=68 sparsity=.9758 nnzs=4512, refcount: 7>
  <dData1D:(new from dSpData1D) n=4512, refcount: 1>
refcount: 1>
new_DM -- step:     5
Re-using DM from previous geometries...
Number of DMs in history: 1
 DM extrapolation coefficients: 
1   1.00000
New DM after history re-use:
<dSpData2D:SpM extrapolated using coords
  <sparsity:sparsity for geom step 5
    nrows_g=68 nrows=68 sparsity=.9758 nnzs=4512, refcount: 9>
  <dData2D:(temp array for extrapolation) n=4512 m=1, refcount: 1>
refcount: 1>
Note: For starting DM, Qtot, Tr[D*S] =         22.00000000         22.10293122
No. of atoms with KB's overlaping orbs in proc 0. Max # of overlaps:       8      63
New grid distribution:   1
           1       1:   36    1:   36    1:   36

InitMesh: MESH =    72 x    72 x    72 =      373248
InitMesh: (bp) =    36 x    36 x    36 =       46656
InitMesh: Mesh cutoff (required, used) =   200.000   227.396 Ry
ExtMesh (bp) on 0 =    84 x    84 x    84 =      592704
PhiOnMesh: Number of (b)points on node 0 =                46656
PhiOnMesh: nlist on node 0 =               355433

        iscf     Eharris(eV)        E_KS(eV)     FreeEng(eV)     dDmax    Ef(eV) dHmax(eV)
   scf:    1     -931.858018     -932.333244     -932.333244  0.061861 -5.052333  1.414139
   scf:    2     -922.670291     -929.253070     -929.253071  0.236933 -4.870358  9.408811
   scf:    3     -932.678591     -932.385336     -932.385336  0.220986 -5.031727  0.374894
   scf:    4     -932.387234     -932.386826     -932.386826  0.003450 -5.025143  0.344890
   scf:    5     -932.390062     -932.391336     -932.391336  0.010160 -4.995431  0.146228
   scf:    6     -932.387433     -932.391529     -932.391529  0.015740 -4.988861  0.159290
   scf:    7     -932.392058     -932.391802     -932.391802  0.000780 -4.988723  0.140976
   scf:    8     -932.391468     -932.392653     -932.392653  0.009524 -4.983811  0.079129
   scf:    9     -932.392978     -932.392837     -932.392837  0.001395 -4.983672  0.047999
   scf:   10     -932.392952     -932.392938     -932.392938  0.001612 -4.985126  0.002122
   scf:   11     -932.392938     -932.392938     -932.392938  0.000007 -4.985147  0.002059
   scf:   12     -932.392939     -932.392939     -932.392939  0.000194 -4.984699  0.000672

SCF Convergence by DM+H criterion
max |DM_out - DM_in|         :     0.0001943906
max |H_out - H_in|      (eV) :     0.0006724292
SCF cycle converged after 12 iterations

Using DM_out to compute the final energy and forces
No. of atoms with KB's overlaping orbs in proc 0. Max # of overlaps:       8      63

siesta: E_KS(eV) =             -932.3929

siesta: Atomic forces (eV/Ang):
----------------------------------------
   Tot   -0.017548   -0.014434    0.000000
----------------------------------------
   Max    8.823597
   Res    3.689445    sqrt( Sum f_i^2 / 3N )
----------------------------------------
   Max    8.823597    constrained

Stress tensor Voigt[x,y,z,yz,xz,xy] (kbar):       63.52       36.05       66.95        0.00        0.00       34.63
(Free)E + p*V (eV/cell)     -949.7198
Target enthalpy (eV/cell)     -932.3929

siesta: Stress tensor (static) (eV/Ang**3):
         0.040496    0.022059   -0.000000
         0.022059    0.023004   -0.000000
         0.000000    0.000000    0.044645

siesta: Pressure (static):        -57.75642561  kBar

siesta: Stress tensor (total) (eV/Ang**3):
         0.039649    0.021611   -0.000000
         0.021611    0.022501   -0.000000
         0.000000    0.000000    0.041786

siesta: Pressure (total):        -55.50843014  kBar

siesta: Temp_ion =    2023.194 K

                     ====================================
                        Begin MD step =      6
                     ====================================

outcell: Unit cell vectors (Ang):
        7.937655    0.000000    0.000000
        0.000000    7.937655    0.000000
        0.000000    0.000000    7.937655

outcell: Cell vector modules (Ang)   :    7.937655    7.937655    7.937655
outcell: Cell angles (23,13,12) (deg):     90.0000     90.0000     90.0000
outcell: Cell volume (Ang**3)        :    500.1228
Gamma-point calculation with multiply-connected orbital pairs
Gamma-point calculation with multiply-connected orbital pairs
Folding of H and S implicitly performed
Folding of H and S implicitly performed
<dSpData1D:S at geom step 6
  <sparsity:sparsity for geom step 6
    nrows_g=68 nrows=68 sparsity=.9758 nnzs=4512, refcount: 7>
  <dData1D:(new from dSpData1D) n=4512, refcount: 1>
refcount: 1>
new_DM -- step:     6
Re-using DM from previous geometries...
Number of DMs in history: 1
 DM extrapolation coefficients: 
1   1.00000
New DM after history re-use:
<dSpData2D:SpM extrapolated using coords
  <sparsity:sparsity for geom step 6
    nrows_g=68 nrows=68 sparsity=.9758 nnzs=4512, refcount: 9>
  <dData2D:(temp array for extrapolation) n=4512 m=1, refcount: 1>
refcount: 1>
Note: For starting DM, Qtot, Tr[D*S] =         22.00000000         22.13334874
No. of atoms with KB's overlaping orbs in proc 0. Max # of overlaps:       8      63
New grid distribution:   1
           1       1:   36    1:   36    1:   36

InitMesh: MESH =    72 x    72 x    72 =      373248
InitMesh: (bp) =    36 x    36 x    36 =       46656
InitMesh: Mesh cutoff (required, used) =   200.000   227.396 Ry
ExtMesh (bp) on 0 =    84 x    84 x    84 =      592704
PhiOnMesh: Number of (b)points on node 0 =                46656
PhiOnMesh: nlist on node 0 =               355211

        iscf     Eharris(eV)        E_KS(eV)     FreeEng(eV)     dDmax    Ef(eV) dHmax(eV)
   scf:    1     -932.648393     -933.303493     -933.303493  0.077127 -5.045792  1.723735
   scf:    2     -918.161811     -928.462954     -928.462954  0.350126 -4.854346 11.501391
   scf:    3     -933.777472     -933.378123     -933.378123  0.327932 -5.026725  0.467222
   scf:    4     -933.381131     -933.380963     -933.380963  0.005473 -5.018531  0.424930
   scf:    5     -933.384425     -933.387322     -933.387322  0.012392 -4.981277  0.198717
   scf:    6     -933.354505     -933.380223     -933.380223  0.032022 -4.970805  0.426595
   scf:    7     -933.392656     -933.387619     -933.387619  0.009996 -4.969971  0.213713
   scf:    8     -933.387258     -933.389621     -933.389621  0.014286 -4.963038  0.107128
   scf:    9     -933.390095     -933.389887     -933.389887  0.001672 -4.961641  0.079354
   scf:   10     -933.390242     -933.390174     -933.390174  0.002319 -4.964591  0.004547
   scf:   11     -933.390175     -933.390175     -933.390175  0.000130 -4.964816  0.002740
   scf:   12     -933.390175     -933.390175     -933.390175  0.000033 -4.964713  0.002468
   scf:   13     -933.390177     -933.390176     -933.390176  0.000184 -4.964168  0.000755

SCF Convergence by DM+H criterion
max |DM_out - DM_in|         :     0.0001843862
max |H_out - H_in|      (eV) :     0.0007554983
SCF cycle converged after 13 iterations

Using DM_out to compute the final energy and forces
No. of atoms with KB's overlaping orbs in proc 0. Max # of overlaps:       8      63

siesta: E_KS(eV) =             -933.3902

siesta: Atomic forces (eV/Ang):
----------------------------------------
   Tot   -0.009941   -0.013487    0.000000
----------------------------------------
   Max    8.757607
   Res    3.684109    sqrt( Sum f_i^2 / 3N )
----------------------------------------
   Max    8.757607    constrained

Stress tensor Voigt[x,y,z,yz,xz,xy] (kbar):       60.32       34.68       61.44       -0.00        0.00       33.23
(Free)E + p*V (eV/cell)     -949.6688
Target enthalpy (eV/cell)     -933.3902

siesta: Stress tensor (static) (eV/Ang**3):
         0.038891    0.021522   -0.000000
         0.021522    0.022539   -0.000000
         0.000000   -0.000000    0.043485

siesta: Pressure (static):        -56.03149665  kBar

siesta: Stress tensor (total) (eV/Ang**3):
         0.037650    0.020743   -0.000000
         0.020742    0.021648   -0.000000
         0.000000   -0.000000    0.038350

siesta: Pressure (total):        -52.15011160  kBar

siesta: Temp_ion =    3124.432 K

                     ====================================
                        Begin MD step =      7
                     ====================================

outcell: Unit cell vectors (Ang):
        7.937655    0.000000    0.000000
        0.000000    7.937655    0.000000
        0.000000    0.000000    7.937655

outcell: Cell vector modules (Ang)   :    7.937655    7.937655    7.937655
outcell: Cell angles (23,13,12) (deg):     90.0000     90.0000     90.0000
outcell: Cell volume (Ang**3)        :    500.1228
Gamma-point calculation with multiply-connected orbital pairs
Gamma-point calculation with multiply-connected orbital pairs
Folding of H and S implicitly performed
Folding of H and S implicitly performed
<dSpData1D:S at geom step 7
  <sparsity:sparsity for geom step 7
    nrows_g=68 nrows=68 sparsity=.9758 nnzs=4512, refcount: 7>
  <dData1D:(new from dSpData1D) n=4512, refcount: 1>
refcount: 1>
new_DM -- step:     7
Re-using DM from previous geometries...
Number of DMs in history: 1
 DM extrapolation coefficients: 
1   1.00000
New DM after history re-use:
<dSpData2D:SpM extrapolated using coords
  <sparsity:sparsity for geom step 7
    nrows_g=68 nrows=68 sparsity=.9758 nnzs=4512, refcount: 9>
  <dData2D:(temp array for extrapolation) n=4512 m=1, refcount: 1>
refcount: 1>
Note: For starting DM, Qtot, Tr[D*S] =         22.00000000         22.16440497
No. of atoms with KB's overlaping orbs in proc 0. Max # of overlaps:       8      63
New grid distribution:   1
           1       1:   36    1:   36    1:   36

InitMesh: MESH =    72 x    72 x    72 =      373248
InitMesh: (bp) =    36 x    36 x    36 =       46656
InitMesh: Mesh cutoff (required, used) =   200.000   227.396 Ry
ExtMesh (bp) on 0 =    84 x    84 x    84 =      592704
PhiOnMesh: Number of (b)points on node 0 =                46656
PhiOnMesh: nlist on node 0 =               355190

        iscf     Eharris(eV)        E_KS(eV)     FreeEng(eV)     dDmax    Ef(eV) dHmax(eV)
   scf:    1     -933.635095     -934.487609     -934.487609  0.085508 -5.041349  1.982461
   scf:    2     -913.106391     -927.638913     -927.638914  0.460384 -4.870852 13.238767
   scf:    3     -935.081962     -934.584665     -934.584665  0.430570 -5.028516  0.549137
   scf:    4     -934.588723     -934.589300     -934.589300  0.008732 -5.020511  0.480162
   scf:    5     -934.591849     -934.596986     -934.596986  0.014069 -4.980263  0.247288
   scf:    6     -934.345212     -934.521835     -934.521835  0.073559 -4.969806  1.204701
   scf:    7     -934.624921     -934.598912     -934.598912  0.048367 -4.961594  0.215163
   scf:    8     -934.596977     -934.600369     -934.600369  0.014639 -4.954377  0.129657
   scf:    9     -934.601497     -934.601079     -934.601079  0.002842 -4.950319  0.079635
   scf:   10     -934.601511     -934.601339     -934.601339  0.001228 -4.952182  0.032534
   scf:   11     -934.601402     -934.601393     -934.601393  0.000894 -4.954033  0.003241
   scf:   12     -934.601393     -934.601393     -934.601393  0.000021 -4.954016  0.003032
   scf:   13     -934.601395     -934.601394     -934.601394  0.000145 -4.953324  0.001330
   scf:   14     -934.601394     -934.601394     -934.601394  0.000019 -4.953242  0.001202
   scf:   15     -934.601394     -934.601394     -934.601394  0.000035 -4.953178  0.000942

SCF Convergence by DM+H criterion
max |DM_out - DM_in|         :     0.0000349064
max |H_out - H_in|      (eV) :     0.0009419658
SCF cycle converged after 15 iterations

Using DM_out to compute the final energy and forces
No. of atoms with KB's overlaping orbs in proc 0. Max # of overlaps:       8      63

siesta: E_KS(eV) =             -934.6014

siesta: Atomic forces (eV/Ang):
----------------------------------------
   Tot   -0.016217   -0.014149    0.000000
----------------------------------------
   Max    8.640299
   Res    3.636145    sqrt( Sum f_i^2 / 3N )
----------------------------------------
   Max    8.640299    constrained

Stress tensor Voigt[x,y,z,yz,xz,xy] (kbar):       56.43       32.80       52.14        0.00        0.00       31.44
(Free)E + p*V (eV/cell)     -949.3100
Target enthalpy (eV/cell)     -934.6014

siesta: Stress tensor (static) (eV/Ang**3):
         0.036950    0.020823    0.000000
         0.020823    0.021856   -0.000000
         0.000000    0.000000    0.040648

siesta: Pressure (static):        -53.11469641  kBar

siesta: Stress tensor (total) (eV/Ang**3):
         0.035219    0.019625   -0.000000
         0.019625    0.020470   -0.000000
         0.000000    0.000000    0.032541

siesta: Pressure (total):        -47.12064731  kBar

siesta: Temp_ion =    4459.736 K

                     ====================================
                        Begin MD step =      8
                     ====================================

outcell: Unit cell vectors (Ang):
        7.937655    0.000000    0.000000
        0.000000    7.937655    0.000000
        0.000000    0.000000    7.937655

outcell: Cell vector modules (Ang)   :    7.937655    7.937655    7.937655
outcell: Cell angles (23,13,12) (deg):     90.0000     90.0000     90.0000
outcell: Cell volume (Ang**3)        :    500.1228
Gamma-point calculation with multiply-connected orbital pairs
Gamma-point calculation with multiply-connected orbital pairs
Folding of H and S implicitly performed
Folding of H and S implicitly performed
<dSpData1D:S at geom step 8
  <sparsity:sparsity for geom step 8
    nrows_g=68 nrows=68 sparsity=.9758 nnzs=4512, refcount: 7>
  <dData1D:(new from dSpData1D) n=4512, refcount: 1>
refcount: 1>
new_DM -- step:     8
Re-using DM from previous geometries...
Number of DMs in history: 1
 DM extrapolation coefficients: 
1   1.00000
New DM after history re-use:
<dSpData2D:SpM extrapolated using coords
  <sparsity:sparsity for geom step 8
    nrows_g=68 nrows=68 sparsity=.9758 nnzs=4512, refcount: 9>
  <dData2D:(temp array for extrapolation) n=4512 m=1, refcount: 1>
refcount: 1>
Note: For starting DM, Qtot, Tr[D*S] =         22.00000000         22.19437269
No. of atoms with KB's overlaping orbs in proc 0. Max # of overlaps:       8      63
New grid distribution:   1
           1       1:   36    1:   36    1:   36

InitMesh: MESH =    72 x    72 x    72 =      373248
InitMesh: (bp) =    36 x    36 x    36 =       46656
InitMesh: Mesh cutoff (required, used) =   200.000   227.396 Ry
ExtMesh (bp) on 0 =    84 x    84 x    84 =      592704
PhiOnMesh: Number of (b)points on node 0 =                46656
PhiOnMesh: nlist on node 0 =               355238

        iscf     Eharris(eV)        E_KS(eV)     FreeEng(eV)     dDmax    Ef(eV) dHmax(eV)
   scf:    1     -934.789851     -935.842841     -935.842841  0.085959 -5.048869  2.147350
   scf:    2     -910.394908     -927.694427     -927.694428  0.517338 -4.923224 14.080480
   scf:    3     -936.522812     -935.958186     -935.958186  0.480863 -5.045566  0.633262
   scf:    4     -935.964423     -935.964359     -935.964359  0.010612 -5.040498  0.512361
   scf:    5     -935.970344     -935.973727     -935.973727  0.016304 -5.001815  0.222560
   scf:    6     -935.413427     -935.794786     -935.794786  0.103486 -5.000828  1.892803
   scf:    7     -936.014975     -935.976270     -935.976270  0.081278 -4.974950  0.180190
   scf:    8     -935.975914     -935.977651     -935.977651  0.008733 -4.969214  0.121621
   scf:    9     -935.978268     -935.978105     -935.978105  0.002894 -4.961631  0.060150
   scf:   10     -935.978317     -935.978220     -935.978220  0.000525 -4.962031  0.040496
   scf:   11     -935.978330     -935.978311     -935.978311  0.000915 -4.964931  0.003849
   scf:   12     -935.978311     -935.978311     -935.978311  0.000009 -4.964890  0.003701
   scf:   13     -935.978312     -935.978312     -935.978312  0.000078 -4.964141  0.002279
   scf:   14     -935.978312     -935.978312     -935.978312  0.000087 -4.964242  0.001757
   scf:   15     -935.978312     -935.978312     -935.978312  0.000026 -4.964122  0.001624
   scf:   16     -935.978312     -935.978312     -935.978312  0.000043 -4.964229  0.000684

SCF Convergence by DM+H criterion
max |DM_out - DM_in|         :     0.0000432780
max |H_out - H_in|      (eV) :     0.0006838096
SCF cycle converged after 16 iterations

Using DM_out to compute the final energy and forces
No. of atoms with KB's overlaping orbs in proc 0. Max # of overlaps:       8      63

siesta: E_KS(eV) =             -935.9783

siesta: Atomic forces (eV/Ang):
----------------------------------------
   Tot   -0.012398    0.004484    0.000000
----------------------------------------
   Max    8.450778
   Res    3.517105    sqrt( Sum f_i^2 / 3N )
----------------------------------------
   Max    8.450778    constrained

Stress tensor Voigt[x,y,z,yz,xz,xy] (kbar):       52.08       30.17       38.59        0.00        0.00       29.27
(Free)E + p*V (eV/cell)     -948.5521
Target enthalpy (eV/cell)     -935.9783

siesta: Stress tensor (static) (eV/Ang**3):
         0.034820    0.019971    0.000000
         0.019971    0.020806    0.000000
         0.000000    0.000000    0.035818

siesta: Pressure (static):        -48.83706463  kBar

siesta: Stress tensor (total) (eV/Ang**3):
         0.032508    0.018271    0.000000
         0.018271    0.018829    0.000000
         0.000000    0.000000    0.024088

siesta: Pressure (total):        -40.28130857  kBar

siesta: Temp_ion =    5971.169 K

                     ====================================
                        Begin MD step =      9
                     ====================================

outcell: Unit cell vectors (Ang):
        7.937655    0.000000    0.000000
        0.000000    7.937655    0.000000
        0.000000    0.000000    7.937655

outcell: Cell vector modules (Ang)   :    7.937655    7.937655    7.937655
outcell: Cell angles (23,13,12) (deg):     90.0000     90.0000     90.0000
outcell: Cell volume (Ang**3)        :    500.1228
Gamma-point calculation with multiply-connected orbital pairs
Gamma-point calculation with multiply-connected orbital pairs
Folding of H and S implicitly performed
Folding of H and S implicitly performed
<dSpData1D:S at geom step 9
  <sparsity:sparsity for geom step 9
    nrows_g=68 nrows=68 sparsity=.9758 nnzs=4512, refcount: 7>
  <dData1D:(new from dSpData1D) n=4512, refcount: 1>
refcount: 1>
new_DM -- step:     9
Re-using DM from previous geometries...
Number of DMs in history: 1
 DM extrapolation coefficients: 
1   1.00000
New DM after history re-use:
<dSpData2D:SpM extrapolated using coords
  <sparsity:sparsity for geom step 9
    nrows_g=68 nrows=68 sparsity=.9758 nnzs=4512, refcount: 9>
  <dData2D:(temp array for extrapolation) n=4512 m=1, refcount: 1>
refcount: 1>
Note: For starting DM, Qtot, Tr[D*S] =         22.00000000         22.22008999
No. of atoms with KB's overlaping orbs in proc 0. Max # of overlaps:       8      63
New grid distribution:   1
           1       1:   36    1:   36    1:   36

InitMesh: MESH =    72 x    72 x    72 =      373248
InitMesh: (bp) =    36 x    36 x    36 =       46656
InitMesh: Mesh cutoff (required, used) =   200.000   227.396 Ry
ExtMesh (bp) on 0 =    84 x    84 x    84 =      592704
PhiOnMesh: Number of (b)points on node 0 =                46656
PhiOnMesh: nlist on node 0 =               355245

        iscf     Eharris(eV)        E_KS(eV)     FreeEng(eV)     dDmax    Ef(eV) dHmax(eV)
   scf:    1     -936.031579     -937.256957     -937.256957  0.075068 -5.084154  2.164316
   scf:    2     -913.273410     -929.595825     -929.595825  0.490497 -5.012813 13.559476
   scf:    3     -937.928515     -937.376664     -937.376664  0.452971 -5.091060  0.645433
   scf:    4     -937.385249     -937.383268     -937.383268  0.009261 -5.088590  0.517292
   scf:    5     -937.393443     -937.393517     -937.393517  0.015918 -5.054934  0.211736
   scf:    6     -936.973636     -937.257014     -937.257014  0.087044 -5.051036  1.684877
   scf:    7     -937.417146     -937.395212     -937.395212  0.071929 -5.022981  0.151863
   scf:    8     -937.396245     -937.397024     -937.397024  0.005140 -5.013016  0.081223
   scf:    9     -937.397251     -937.397218     -937.397218  0.002135 -5.008121  0.047339
   scf:   10     -937.397393     -937.397317     -937.397317  0.000717 -5.008136  0.025533
   scf:   11     -937.397373     -937.397361     -937.397361  0.000486 -5.010575  0.004649
   scf:   12     -937.397361     -937.397361     -937.397361  0.000008 -5.010487  0.004556
   scf:   13     -937.397362     -937.397361     -937.397361  0.000049 -5.010775  0.003809
   scf:   14     -937.397362     -937.397362     -937.397362  0.000037 -5.010620  0.003313
   scf:   15     -937.397362     -937.397362     -937.397362  0.000021 -5.010441  0.002946
   scf:   16     -937.397362     -937.397362     -937.397362  0.000033 -5.010263  0.002493
   scf:   17     -937.397363     -937.397362     -937.397362  0.000031 -5.010161  0.002017
   scf:   18     -937.397363     -937.397363     -937.397363  0.000022 -5.010104  0.001831
   scf:   19     -937.397364     -937.397363     -937.397363  0.000117 -5.009603  0.001216
   scf:   20     -937.397363     -937.397363     -937.397363  0.000006 -5.009602  0.001111
   scf:   21     -937.397363     -937.397363     -937.397363  0.000023 -5.009769  0.000243

SCF Convergence by DM+H criterion
max |DM_out - DM_in|         :     0.0000234140
max |H_out - H_in|      (eV) :     0.0002432141
SCF cycle converged after 21 iterations

Using DM_out to compute the final energy and forces
No. of atoms with KB's overlaping orbs in proc 0. Max # of overlaps:       8      63

siesta: E_KS(eV) =             -937.3974

siesta: Atomic forces (eV/Ang):
----------------------------------------
   Tot   -0.033410    0.015469    0.000000
----------------------------------------
   Max    8.136253
   Res    3.271729    sqrt( Sum f_i^2 / 3N )
----------------------------------------
   Max    8.136253    constrained

Stress tensor Voigt[x,y,z,yz,xz,xy] (kbar):       47.52       26.25       18.72        0.00        0.00       26.67
(Free)E + p*V (eV/cell)     -947.0216
Target enthalpy (eV/cell)     -937.3974

siesta: Stress tensor (static) (eV/Ang**3):
         0.032640    0.018920   -0.000000
         0.018920    0.019036   -0.000000
         0.000000    0.000000    0.027505

siesta: Pressure (static):        -42.28765483  kBar

siesta: Stress tensor (total) (eV/Ang**3):
         0.029658    0.016647   -0.000000
         0.016646    0.016387   -0.000000
         0.000000    0.000000    0.011687

siesta: Pressure (total):        -30.83229774  kBar

siesta: Temp_ion =    7520.356 K

                     ====================================
                        Begin MD step =     10
                     ====================================

outcell: Unit cell vectors (Ang):
        7.937655    0.000000    0.000000
        0.000000    7.937655    0.000000
        0.000000    0.000000    7.937655

outcell: Cell vector modules (Ang)   :    7.937655    7.937655    7.937655
outcell: Cell angles (23,13,12) (deg):     90.0000     90.0000     90.0000
outcell: Cell volume (Ang**3)        :    500.1228
Gamma-point calculation with multiply-connected orbital pairs
Gamma-point calculation with multiply-connected orbital pairs
Folding of H and S implicitly performed
Folding of H and S implicitly performed
<dSpData1D:S at geom step 10
  <sparsity:sparsity for geom step 10
    nrows_g=68 nrows=68 sparsity=.9758 nnzs=4512, refcount: 7>
  <dData1D:(new from dSpData1D) n=4512, refcount: 1>
refcount: 1>
new_DM -- step:    10
Re-using DM from previous geometries...
Number of DMs in history: 1
 DM extrapolation coefficients: 
1   1.00000
New DM after history re-use:
<dSpData2D:SpM extrapolated using coords
  <sparsity:sparsity for geom step 10
    nrows_g=68 nrows=68 sparsity=.9758 nnzs=4512, refcount: 9>
  <dData2D:(temp array for extrapolation) n=4512 m=1, refcount: 1>
refcount: 1>
Note: For starting DM, Qtot, Tr[D*S] =         22.00000000         22.23663528
No. of atoms with KB's overlaping orbs in proc 0. Max # of overlaps:       8      63
New grid distribution:   1
           1       1:   36    1:   36    1:   36

InitMesh: MESH =    72 x    72 x    72 =      373248
InitMesh: (bp) =    36 x    36 x    36 =       46656
InitMesh: Mesh cutoff (required, used) =   200.000   227.396 Ry
ExtMesh (bp) on 0 =    84 x    84 x    84 =      592704
PhiOnMesh: Number of (b)points on node 0 =                46656
PhiOnMesh: nlist on node 0 =               355433

        iscf     Eharris(eV)        E_KS(eV)     FreeEng(eV)     dDmax    Ef(eV) dHmax(eV)
   scf:    1     -937.174210     -938.495707     -938.495707  0.079928 -5.161379  1.960135
   scf:    2     -923.327622     -933.680785     -933.680785  0.353018 -5.132526 11.035768
   scf:    3     -939.005000     -938.593490     -938.593490  0.324064 -5.178607  0.546847
   scf:    4     -938.596261     -938.598203     -938.598203  0.009511 -5.173178  0.434762
   scf:    5     -938.603528     -938.606145     -938.606145  0.014775 -5.145308  0.214507
   scf:    6     -938.445850     -938.557441     -938.557441  0.053048 -5.131468  1.014865
   scf:    7     -938.618480     -938.607687     -938.607687  0.038561 -5.114582  0.159900
   scf:    8     -938.608907     -938.609572     -938.609572  0.005678 -5.100439  0.080059
   scf:    9     -938.609821     -938.609736     -938.609736  0.002093 -5.096352  0.037973
   scf:   10     -938.609766     -938.609755     -938.609755  0.000596 -5.096225  0.038285
   scf:   11     -938.609877     -938.609849     -938.609849  0.000685 -5.100770  0.004869
   scf:   12     -938.609849     -938.609849     -938.609849  0.000029 -5.100650  0.005063
   scf:   13     -938.609852     -938.609851     -938.609851  0.000211 -5.099274  0.002801
   scf:   14     -938.609851     -938.609851     -938.609851  0.000014 -5.099211  0.002422
   scf:   15     -938.609852     -938.609852     -938.609852  0.000086 -5.099115  0.001327
   scf:   16     -938.609852     -938.609852     -938.609852  0.000026 -5.099129  0.000880

SCF Convergence by DM+H criterion
max |DM_out - DM_in|         :     0.0000263908
max |H_out - H_in|      (eV) :     0.0008795642
SCF cycle converged after 16 iterations

Using DM_out to compute the final energy and forces
No. of atoms with KB's overlaping orbs in proc 0. Max # of overlaps:       8      63

siesta: E_KS(eV) =             -938.6099

siesta: Atomic forces (eV/Ang):
----------------------------------------
   Tot   -0.035222    0.028317    0.000000
----------------------------------------
   Max    7.639971
   Res    2.871769    sqrt( Sum f_i^2 / 3N )
----------------------------------------
   Max    7.639971    constrained

Stress tensor Voigt[x,y,z,yz,xz,xy] (kbar):       42.54       20.19       -9.14        0.00       -0.00       23.52
(Free)E + p*V (eV/cell)     -944.1860
Target enthalpy (eV/cell)     -938.6099

siesta: Stress tensor (static) (eV/Ang**3):
         0.030284    0.017578   -0.000000
         0.017578    0.015966    0.000000
        -0.000000    0.000000    0.014212

siesta: Pressure (static):        -32.29108244  kBar

siesta: Stress tensor (total) (eV/Ang**3):
         0.026554    0.014677   -0.000000
         0.014677    0.012600    0.000000
        -0.000000    0.000000   -0.005706

siesta: Pressure (total):        -17.86369559  kBar

siesta: Temp_ion =    8827.568 K

                     ====================================
                        Begin MD step =     11
                     ====================================

outcell: Unit cell vectors (Ang):
        7.937655    0.000000    0.000000
        0.000000    7.937655    0.000000
        0.000000    0.000000    7.937655

outcell: Cell vector modules (Ang)   :    7.937655    7.937655    7.937655
outcell: Cell angles (23,13,12) (deg):     90.0000     90.0000     90.0000
outcell: Cell volume (Ang**3)        :    500.1228
Gamma-point calculation with multiply-connected orbital pairs
Gamma-point calculation with multiply-connected orbital pairs
Folding of H and S implicitly performed
Folding of H and S implicitly performed
<dSpData1D:S at geom step 11
  <sparsity:sparsity for geom step 11
    nrows_g=68 nrows=68 sparsity=.9775 nnzs=4520, refcount: 7>
  <dData1D:(new from dSpData1D) n=4520, refcount: 1>
refcount: 1>
new_DM -- step:    11
Re-using DM from previous geometries...
Number of DMs in history: 1
 DM extrapolation coefficients: 
1   1.00000
New DM after history re-use:
<dSpData2D:SpM extrapolated using coords
  <sparsity:sparsity for geom step 11
    nrows_g=68 nrows=68 sparsity=.9775 nnzs=4520, refcount: 9>
  <dData2D:(temp array for extrapolation) n=4520 m=1, refcount: 1>
refcount: 1>
Note: For starting DM, Qtot, Tr[D*S] =         22.00000000         22.23664894
No. of atoms with KB's overlaping orbs in proc 0. Max # of overlaps:       8      64
New grid distribution:   1
           1       1:   36    1:   36    1:   36

InitMesh: MESH =    72 x    72 x    72 =      373248
InitMesh: (bp) =    36 x    36 x    36 =       46656
InitMesh: Mesh cutoff (required, used) =   200.000   227.396 Ry
ExtMesh (bp) on 0 =    84 x    84 x    84 =      592704
PhiOnMesh: Number of (b)points on node 0 =                46656
PhiOnMesh: nlist on node 0 =               355515

        iscf     Eharris(eV)        E_KS(eV)     FreeEng(eV)     dDmax    Ef(eV) dHmax(eV)
   scf:    1     -937.834373     -939.152695     -939.152695  0.114705 -5.331767  1.434957
   scf:    2     -935.038364     -937.885357     -937.885357  0.135060 -5.233518  5.956115
   scf:    3     -939.407501     -939.207562     -939.207562  0.112764 -5.322124  0.435510
   scf:    4     -939.207863     -939.207715     -939.207715  0.000235 -5.321661  0.431041
   scf:    5     -939.207397     -939.212194     -939.212194  0.016255 -5.241221  0.310594
   scf:    6     -939.206333     -939.209451     -939.209451  0.002972 -5.248437  0.401061
   scf:    7     -939.210834     -939.214459     -939.214459  0.016216 -5.251610  0.180864
   scf:    8     -939.215963     -939.215682     -939.215682  0.006036 -5.207142  0.035251
   scf:    9     -939.215703     -939.215717     -939.215717  0.000944 -5.209284  0.019963
   scf:   10     -939.215778     -939.215754     -939.215754  0.001351 -5.206985  0.017596
   scf:   11     -939.215766     -939.215766     -939.215766  0.000502 -5.205668  0.003713
   scf:   12     -939.215767     -939.215767     -939.215767  0.000033 -5.205473  0.003754
   scf:   13     -939.215768     -939.215767     -939.215767  0.000088 -5.205093  0.002494
   scf:   14     -939.215768     -939.215767     -939.215767  0.000019 -5.205016  0.002353
   scf:   15     -939.215769     -939.215768     -939.215768  0.000133 -5.255513  0.001249
   scf:   16     -939.215768     -939.215768     -939.215768  0.000047 -5.255320  0.000286

SCF Convergence by DM+H criterion
max |DM_out - DM_in|         :     0.0000468903
max |H_out - H_in|      (eV) :     0.0002861216
SCF cycle converged after 16 iterations

Using DM_out to compute the final energy and forces
No. of atoms with KB's overlaping orbs in proc 0. Max # of overlaps:       8      64

siesta: E_KS(eV) =             -939.2158

siesta: Atomic forces (eV/Ang):
----------------------------------------
   Tot   -0.003881    0.027499   -0.000000
----------------------------------------
   Max    6.871364
   Res    2.549416    sqrt( Sum f_i^2 / 3N )
----------------------------------------
   Max    6.871364    constrained

Stress tensor Voigt[x,y,z,yz,xz,xy] (kbar):       36.99       10.70      -44.74        0.00       -0.00       19.66
(Free)E + p*V (eV/cell)     -939.5230
Target enthalpy (eV/cell)     -939.2158

siesta: Stress tensor (static) (eV/Ang**3):
         0.027635    0.015829   -0.000000
         0.015829    0.010740    0.000000
        -0.000000    0.000000   -0.004822

siesta: Pressure (static):        -17.91943035  kBar

siesta: Stress tensor (total) (eV/Ang**3):
         0.023088    0.012273   -0.000000
         0.012273    0.006677    0.000000
        -0.000000    0.000000   -0.027921

siesta: Pressure (total):         -0.98423043  kBar

siesta: Temp_ion =    9456.581 K

                     ====================================
                        Begin MD step =     12
                     ====================================

outcell: Unit cell vectors (Ang):
        7.937655    0.000000    0.000000
        0.000000    7.937655    0.000000
        0.000000    0.000000    7.937655

outcell: Cell vector modules (Ang)   :    7.937655    7.937655    7.937655
outcell: Cell angles (23,13,12) (deg):     90.0000     90.0000     90.0000
outcell: Cell volume (Ang**3)        :    500.1228
Gamma-point calculation with multiply-connected orbital pairs
Gamma-point calculation with multiply-connected orbital pairs
Folding of H and S implicitly performed
Folding of H and S implicitly performed
<dSpData1D:S at geom step 12
  <sparsity:sparsity for geom step 12
[...]
(Free)E + p*V (eV/cell)     -942.0842
Target enthalpy (eV/cell)     -941.0638

siesta: Stress tensor (static) (eV/Ang**3):
         0.016661    0.005080    0.000000
         0.005080    0.003534    0.000000
         0.000000    0.000000    0.030237

siesta: Pressure (static):        -26.93363554  kBar

siesta: Stress tensor (total) (eV/Ang**3):
         0.003159    0.004565    0.000000
         0.004565   -0.005085    0.000000
        -0.000000    0.000000    0.008047

siesta: Pressure (total):         -3.26891684  kBar

siesta: Temp_ion =   11541.763 K

                     ====================================
                        Begin MD step =     48
                     ====================================

outcell: Unit cell vectors (Ang):
        7.937655    0.000000    0.000000
        0.000000    7.937655    0.000000
        0.000000    0.000000    7.937655

outcell: Cell vector modules (Ang)   :    7.937655    7.937655    7.937655
outcell: Cell angles (23,13,12) (deg):     90.0000     90.0000     90.0000
outcell: Cell volume (Ang**3)        :    500.1228
Gamma-point calculation with multiply-connected orbital pairs
Gamma-point calculation with multiply-connected orbital pairs
Folding of H and S implicitly performed
Folding of H and S implicitly performed
<dSpData1D:S at geom step 48
  <sparsity:sparsity for geom step 48
    nrows_g=68 nrows=68 sparsity=.9637 nnzs=4456, refcount: 7>
  <dData1D:(new from dSpData1D) n=4456, refcount: 1>
refcount: 1>
new_DM -- step:    48
Re-using DM from previous geometries...
Number of DMs in history: 1
 DM extrapolation coefficients: 
1   1.00000
New DM after history re-use:
<dSpData2D:SpM extrapolated using coords
  <sparsity:sparsity for geom step 48
    nrows_g=68 nrows=68 sparsity=.9637 nnzs=4456, refcount: 9>
  <dData2D:(temp array for extrapolation) n=4456 m=1, refcount: 1>
refcount: 1>
Note: For starting DM, Qtot, Tr[D*S] =         22.00000000         21.87256952
No. of atoms with KB's overlaping orbs in proc 0. Max # of overlaps:       8      64
New grid distribution:   1
           1       1:   36    1:   36    1:   36

InitMesh: MESH =    72 x    72 x    72 =      373248
InitMesh: (bp) =    36 x    36 x    36 =       46656
InitMesh: Mesh cutoff (required, used) =   200.000   227.396 Ry
ExtMesh (bp) on 0 =    84 x    84 x    84 =      592704
PhiOnMesh: Number of (b)points on node 0 =                46656
PhiOnMesh: nlist on node 0 =               355320

        iscf     Eharris(eV)        E_KS(eV)     FreeEng(eV)     dDmax    Ef(eV) dHmax(eV)
   scf:    1     -939.305077     -939.431205     -939.431205  0.077546 -4.491125  3.238982
   scf:    2     -931.025008     -937.073314     -937.073314  0.195032 -2.350843  8.066729
   scf:    3     -940.623331     -939.782720     -939.782720  0.131435 -3.403505  0.629465
   scf:    4     -939.782389     -939.782555     -939.782555  0.000058 -3.402667  0.632870
   scf:    5     -939.798542     -939.798625     -939.798625  0.013480 -3.543289  0.165010
   scf:    6     -939.800337     -939.800215     -939.800215  0.003373 -3.543719  0.065144
   scf:    7     -939.799776     -939.800148     -939.800148  0.002388 -3.581078  0.094902
   scf:    8     -939.800370     -939.800416     -939.800416  0.001985 -3.566179  0.029240
   scf:    9     -939.800454     -939.800441     -939.800441  0.000426 -3.570394  0.025532
   scf:   10     -939.800499     -939.800481     -939.800481  0.000896 -3.564133  0.002430
   scf:   11     -939.800481     -939.800481     -939.800481  0.000007 -3.564131  0.002366
   scf:   12     -939.800483     -939.800482     -939.800482  0.000180 -3.564419  0.000479

SCF Convergence by DM+H criterion
max |DM_out - DM_in|         :     0.0001804495
max |H_out - H_in|      (eV) :     0.0004787606
SCF cycle converged after 12 iterations

Using DM_out to compute the final energy and forces
No. of atoms with KB's overlaping orbs in proc 0. Max # of overlaps:       8      64

siesta: E_KS(eV) =             -939.8005

siesta: Atomic forces (eV/Ang):
----------------------------------------
   Tot    0.024729   -0.011317    0.000000
----------------------------------------
   Max    8.350254
   Res    3.169642    sqrt( Sum f_i^2 / 3N )
----------------------------------------
   Max    8.350254    constrained

Stress tensor Voigt[x,y,z,yz,xz,xy] (kbar):       -2.29      -13.93       34.48       -0.00       -0.00       -0.69
(Free)E + p*V (eV/cell)     -941.7015
Target enthalpy (eV/cell)     -939.8005

siesta: Stress tensor (static) (eV/Ang**3):
         0.012316   -0.000079    0.000000
        -0.000079   -0.000323    0.000000
        -0.000000   -0.000000    0.040871

siesta: Pressure (static):        -28.23237105  kBar

siesta: Stress tensor (total) (eV/Ang**3):
        -0.001427   -0.000429    0.000000
        -0.000429   -0.008692    0.000000
        -0.000000   -0.000000    0.021522

siesta: Pressure (total):         -6.09013699  kBar

siesta: Temp_ion =   10168.595 K

                     ====================================
                        Begin MD step =     49
                     ====================================

outcell: Unit cell vectors (Ang):
        7.937655    0.000000    0.000000
        0.000000    7.937655    0.000000
        0.000000    0.000000    7.937655

outcell: Cell vector modules (Ang)   :    7.937655    7.937655    7.937655
outcell: Cell angles (23,13,12) (deg):     90.0000     90.0000     90.0000
outcell: Cell volume (Ang**3)        :    500.1228
Gamma-point calculation with multiply-connected orbital pairs
Gamma-point calculation with multiply-connected orbital pairs
Folding of H and S implicitly performed
Folding of H and S implicitly performed
<dSpData1D:S at geom step 49
  <sparsity:sparsity for geom step 49
    nrows_g=68 nrows=68 sparsity=.9637 nnzs=4456, refcount: 7>
  <dData1D:(new from dSpData1D) n=4456, refcount: 1>
refcount: 1>
new_DM -- step:    49
Re-using DM from previous geometries...
Number of DMs in history: 1
 DM extrapolation coefficients: 
1   1.00000
New DM after history re-use:
<dSpData2D:SpM extrapolated using coords
  <sparsity:sparsity for geom step 49
    nrows_g=68 nrows=68 sparsity=.9637 nnzs=4456, refcount: 9>
  <dData2D:(temp array for extrapolation) n=4456 m=1, refcount: 1>
refcount: 1>
Note: For starting DM, Qtot, Tr[D*S] =         22.00000000         21.89030298
No. of atoms with KB's overlaping orbs in proc 0. Max # of overlaps:       8      64
New grid distribution:   1
           1       1:   36    1:   36    1:   36

InitMesh: MESH =    72 x    72 x    72 =      373248
InitMesh: (bp) =    36 x    36 x    36 =       46656
InitMesh: Mesh cutoff (required, used) =   200.000   227.396 Ry
ExtMesh (bp) on 0 =    84 x    84 x    84 =      592704
PhiOnMesh: Number of (b)points on node 0 =                46656
PhiOnMesh: nlist on node 0 =               355268

        iscf     Eharris(eV)        E_KS(eV)     FreeEng(eV)     dDmax    Ef(eV) dHmax(eV)
   scf:    1     -938.026061     -938.067892     -938.067892  0.070846 -4.545002  2.655416
   scf:    2     -932.565449     -936.534244     -936.534244  0.151224 -2.904204  6.283997
   scf:    3     -938.861551     -938.312944     -938.312944  0.102241 -3.353828  0.460869
   scf:    4     -938.314543     -938.313754     -938.313754  0.000413 -3.365467  0.429147
   scf:    5     -938.323707     -938.321972     -938.321972  0.007308 -3.483275  0.070299
   scf:    6     -938.322684     -938.322562     -938.322562  0.002099 -3.477229  0.044237
   scf:    7     -938.322362     -938.322555     -938.322555  0.001622 -3.507813  0.063401
   scf:    8     -938.322710     -938.322685     -938.322685  0.001853 -3.493436  0.022032
   scf:    9     -938.322704     -938.322698     -938.322698  0.000309 -3.497018  0.015712
   scf:   10     -938.322721     -938.322714     -938.322714  0.000501 -3.493239  0.002155
   scf:   11     -938.322714     -938.322714     -938.322714  0.000006 -3.493251  0.002094
   scf:   12     -938.322716     -938.322715     -938.322715  0.000169 -3.493417  0.000364

SCF Convergence by DM+H criterion
max |DM_out - DM_in|         :     0.0001690377
max |H_out - H_in|      (eV) :     0.0003637837
SCF cycle converged after 12 iterations

Using DM_out to compute the final energy and forces
No. of atoms with KB's overlaping orbs in proc 0. Max # of overlaps:       8      64

siesta: E_KS(eV) =             -938.3227

siesta: Atomic forces (eV/Ang):
----------------------------------------
   Tot    0.058177    0.024652   -0.000000
----------------------------------------
   Max   12.943315
   Res    4.633098    sqrt( Sum f_i^2 / 3N )
----------------------------------------
   Max   12.943315    constrained

Stress tensor Voigt[x,y,z,yz,xz,xy] (kbar):      -10.44      -20.27       52.05        0.00        0.00       -8.93
(Free)E + p*V (eV/cell)     -940.5433
Target enthalpy (eV/cell)     -938.3227

siesta: Stress tensor (static) (eV/Ang**3):
         0.007065   -0.005667    0.000000
        -0.005667   -0.004806    0.000000
         0.000000    0.000000    0.047589

siesta: Pressure (static):        -26.62189334  kBar

siesta: Stress tensor (total) (eV/Ang**3):
        -0.006515   -0.005571    0.000000
        -0.005571   -0.012649    0.000000
         0.000000    0.000000    0.032484

siesta: Pressure (total):         -7.11400680  kBar

siesta: Temp_ion =    8553.874 K

                     ====================================
                        Begin MD step =     50
                     ====================================

outcell: Unit cell vectors (Ang):
        7.937655    0.000000    0.000000
        0.000000    7.937655    0.000000
        0.000000    0.000000    7.937655

outcell: Cell vector modules (Ang)   :    7.937655    7.937655    7.937655
outcell: Cell angles (23,13,12) (deg):     90.0000     90.0000     90.0000
outcell: Cell volume (Ang**3)        :    500.1228
Gamma-point calculation with multiply-connected orbital pairs
Gamma-point calculation with multiply-connected orbital pairs
Folding of H and S implicitly performed
Folding of H and S implicitly performed
<dSpData1D:S at geom step 50
  <sparsity:sparsity for geom step 50
    nrows_g=68 nrows=68 sparsity=.9637 nnzs=4456, refcount: 7>
  <dData1D:(new from dSpData1D) n=4456, refcount: 1>
refcount: 1>
new_DM -- step:    50
Re-using DM from previous geometries...
Number of DMs in history: 1
 DM extrapolation coefficients: 
1   1.00000
New DM after history re-use:
<dSpData2D:SpM extrapolated using coords
  <sparsity:sparsity for geom step 50
    nrows_g=68 nrows=68 sparsity=.9637 nnzs=4456, refcount: 9>
  <dData2D:(temp array for extrapolation) n=4456 m=1, refcount: 1>
refcount: 1>
Note: For starting DM, Qtot, Tr[D*S] =         22.00000000         21.91019503
No. of atoms with KB's overlaping orbs in proc 0. Max # of overlaps:       8      64
New grid distribution:   1
           1       1:   36    1:   36    1:   36

InitMesh: MESH =    72 x    72 x    72 =      373248
InitMesh: (bp) =    36 x    36 x    36 =       46656
InitMesh: Mesh cutoff (required, used) =   200.000   227.396 Ry
ExtMesh (bp) on 0 =    84 x    84 x    84 =      592704
PhiOnMesh: Number of (b)points on node 0 =                46656
PhiOnMesh: nlist on node 0 =               355110

        iscf     Eharris(eV)        E_KS(eV)     FreeEng(eV)     dDmax    Ef(eV) dHmax(eV)
   scf:    1     -936.772587     -936.717046     -936.717046  0.067748 -3.735249  2.015364
   scf:    2     -933.546878     -935.832842     -935.832842  0.110945 -3.366557  4.939814
   scf:    3     -937.171662     -936.858309     -936.858309  0.075839 -4.145259  0.316135
   scf:    4     -936.860053     -936.859210     -936.859210  0.000932 -4.167394  0.268506
   scf:    5     -936.864830     -936.863512     -936.863512  0.005141 -3.377704  0.048054
   scf:    6     -936.863879     -936.863780     -936.863780  0.001682 -3.373744  0.024707
   scf:    7     -936.863608     -936.863730     -936.863730  0.000975 -3.388724  0.044348
   scf:    8     -936.863879     -936.863836     -936.863836  0.001658 -3.379069  0.009849
   scf:    9     -936.863831     -936.863834     -936.863834  0.000079 -3.377869  0.011159
   scf:   10     -936.863846     -936.863843     -936.863843  0.000274 -3.379509  0.001992
   scf:   11     -936.863843     -936.863843     -936.863843  0.000007 -3.379509  0.001925
   scf:   12     -936.863844     -936.863844     -936.863844  0.000127 -3.379498  0.000604

SCF Convergence by DM+H criterion
max |DM_out - DM_in|         :     0.0001270141
max |H_out - H_in|      (eV) :     0.0006035822
SCF cycle converged after 12 iterations

Using DM_out to compute the final energy and forces
No. of atoms with KB's overlaping orbs in proc 0. Max # of overlaps:       8      64

siesta: E_KS(eV) =             -936.8638

siesta: Atomic forces (eV/Ang):
----------------------------------------
   Tot    0.016141    0.035993    0.000000
----------------------------------------
   Max   17.522723
   Res    6.212780    sqrt( Sum f_i^2 / 3N )
----------------------------------------
   Max   17.522723    constrained

Stress tensor Voigt[x,y,z,yz,xz,xy] (kbar):      -18.79      -26.12       65.12        0.00        0.00      -16.61
(Free)E + p*V (eV/cell)     -938.9661
Target enthalpy (eV/cell)     -936.8638

siesta: Stress tensor (static) (eV/Ang**3):
         0.001311   -0.011203    0.000000
        -0.011203   -0.009301    0.000000
         0.000000    0.000000    0.051327

siesta: Pressure (static):        -23.14491177  kBar

siesta: Stress tensor (total) (eV/Ang**3):
        -0.011729   -0.010367    0.000000
        -0.010367   -0.016305    0.000000
         0.000000    0.000000    0.040644

siesta: Pressure (total):         -6.73477839  kBar

siesta: Temp_ion =    6953.977 K

coxmol: Writing XMOL coordinates into file CH2+CN+NH2.xyz                                                      

siesta: Program's energy decomposition (eV):
siesta: Ebs     =      -247.676487
siesta: Eions   =      1418.860585
siesta: Ena     =       259.073923
siesta: Ekin    =       618.271456
siesta: Enl     =       -99.985442
siesta: Eso     =         0.000000
siesta: Edftu   =         0.000000
siesta: DEna    =         0.328199
siesta: DUscf   =         2.280142
siesta: DUext   =         0.000000
siesta: Exc     =      -297.971537
siesta: eta*DQ  =         0.000000
siesta: Emadel  =         0.000000
siesta: Emeta   =         0.000000
siesta: Emolmec =         0.000000
siesta: Ekinion =         6.291854
siesta: Eharris =      -930.571990
siesta: Etot    =      -930.571990
siesta: FreeEng =      -930.571990

siesta: Final energy (eV):
siesta:  Band Struct. =    -247.676487
siesta:       Kinetic =     618.271456
siesta:       Hartree =     948.252080
siesta:       Edftu   =       0.000000
siesta:       Eso     =       0.000000
siesta:    Ext. field =       0.000000
siesta:   Exch.-corr. =    -297.971537
siesta:  Ion-electron =   -2422.039901
siesta:       Ion-ion =     216.624059
siesta:       Ekinion =       6.291854
siesta:         Total =    -930.571990
siesta:         Fermi =      -3.379498

siesta: Atomic forces (eV/Ang):
siesta:      1    1.106166   -0.040151    0.000000
siesta:      2    0.258808    1.135296   -4.295023
siesta:      3    0.258808    1.135296    4.295023
siesta:      4   -4.633810   -3.222561   -0.000000
siesta:      5   -0.001272    0.421176    5.580967
siesta:      6   -0.001272    0.421176   -5.580967
siesta:      7   17.522723   11.795233    0.000000
siesta:      8  -14.494008  -11.609473   -0.000000
siesta: ----------------------------------------
siesta:    Tot    0.016141    0.035993    0.000000

siesta: Stress tensor (static) (eV/Ang**3):
siesta:     0.001311   -0.011203    0.000000
siesta:    -0.011203   -0.009301    0.000000
siesta:     0.000000    0.000000    0.051327

siesta: Cell volume =        500.122803 Ang**3

siesta: Pressure (static):
siesta:                Solid            Molecule  Units
siesta:          -0.00015733         -0.00000052  Ry/Bohr**3
siesta:          -0.01444576         -0.00004792  eV/Ang**3
siesta:         -23.14491177         -0.07678090  kBar
(Free)E+ p_basis*V_orbitals  =        -935.234393
(Free)Eharris+ p_basis*V_orbitals  =        -935.234394

siesta: Electric dipole (a.u.)  =   -0.000000    0.542517   -0.000000
siesta: Electric dipole (Debye) =   -0.000000    1.378942   -0.000000

cite: Please see "CH2+CN+NH2.bib" for an exhaustive BiBTeX file.
cite: Please clearly indicate Siesta version in published work: 4.1.5
cite: This calculation has made use of the following articles
cite: which are encouraged to be cited in a published work.
        Primary SIESTA paper
          DOI: www.doi.org/10.1088/0953-8984/14/11/302


timer: Elapsed wall time (sec) =     311.473
timer: CPU execution times (sec):

Routine            Calls   Time/call    Tot.time        %
siesta                 1    1303.059    1303.059   100.00
Setup                  1       0.244       0.244     0.02
bands                  1       0.000       0.000     0.00
KSV_init               1       0.000       0.000     0.00
IterGeom              50      26.056    1302.812    99.98
state_init            50       0.016       0.821     0.06
hsparse               50       0.000       0.021     0.00
overlap               50       0.016       0.779     0.06
Setup_H0              50       0.541      27.037     2.07
naefs                100       0.000       0.005     0.00
MolMec               100       0.000       0.000     0.00
kinefsm              100       0.008       0.848     0.07
nlefsm               100       0.050       5.049     0.39
DHSCF_Init            50       0.430      21.486     1.65
DHSCF1                50       0.012       0.617     0.05
INITMESH              50       0.000       0.000     0.00
DHSCF2                50       0.417      20.868     1.60
REMESH                50       0.046       2.290     0.18
REORD               2396       0.004       8.418     0.65
PHION                 50       0.247      12.365     0.95
COMM_BSC            3442       0.003       9.374     0.72
POISON               873       0.776     677.859    52.02
fft                 1746       0.354     618.848    47.49
IterSCF              723       1.723    1245.686    95.60
setup_H              773       1.580    1221.306    93.73
DHSCF                823       1.519    1249.842    95.92
DHSCF3               823       1.502    1235.915    94.85
rhoofd               823       0.464     381.544    29.28
XC                   823       0.146     119.906     9.20
GXC-CellXC           823       0.142     117.002     8.98
cellXC               823       0.142     116.978     8.98
vmat                 823       0.021      17.405     1.34
compute_dm           723       0.033      24.075     1.85
diagon               723       0.033      23.950     1.84
r-eigvec             723       0.029      21.297     1.63
r-buildHS            723       0.000       0.016     0.00
rdiag                723       0.029      21.267     1.63
rdiag1               723       0.012       8.721     0.67
rdiag2               723       0.004       2.928     0.22
rdiag3               723       0.011       8.225     0.63
rdiag4               723       0.002       1.332     0.10
r-buildD             723       0.003       2.479     0.19
MIXER                673       0.000       0.073     0.01
PostSCF               50       0.584      29.221     2.24
DHSCF4                50       0.278      13.918     1.07
dfscf                 50       0.241      12.055     0.93
overfsm               50       0.001       0.072     0.01
state_analysis        50       0.000       0.011     0.00
siesta_move           50       0.000       0.024     0.00
Analysis               1       0.000       0.000     0.00
siesta_analysis        1       0.000       0.000     0.00
optical                1       0.000       0.000     0.00
  
>> End of run:  17-JUN-2023  19:35:18
Job completed
Job completed
