Siesta Version  : 4.1.5
Architecture    : unknown
Compiler version: GNU Fortran (GCC) 9.4.0
Compiler flags  : mpifort -march=nocona -mtune=haswell -ftree-vectorize -fPIC -fstack-protectorr-strong -fno-plt -O2 -ffunction-sections -pipe
PP flags        : -DFC_HAVE_ABORT -DCDF -DMPI -DSIESTA__MRRR -DNCDF -DNCDF_4
Libraries       : libncdf.a libfdict.a -lscalapack -llapack -lblas -lnetcdff -lnetcdf -lhdf5_hll -lhdf5 -lz
PARALLEL version
NetCDF support
NetCDF-4 support

* Running in serial mode with MPI
>> Start of run:  16-JUN-2023   0:05:27

                           ***********************       
                           *  WELCOME TO SIESTA  *       
                           ***********************       

reinit: Reading from standard input
reinit: Dumped input in INPUT_TMP.03863
************************** Dump of input data file ****************************
SystemName CO2 + CO2 -> 2CO + 2O reaction # Descriptive name of the system
SystemLabel            xocCO2         # Short name for naming files
# Species and atoms
NumberOfSpecies       2
NumberOfAtoms         6
%block ChemicalSpeciesLabel
  1   8  O
  2   6  C
%endblock ChemicalSpeciesLabel
# Basis
%block PAO.BasisSizes
    C DZP
    O DZP
%endblock PAO.BasisSizes
LatticeConstant       1.0000 Ang
%block LatticeVectors
15.00000   0.000000  0.000000
 0.00000  15.000000  0.000000
 0.00000   0.000000 15.000000
%endblock LatticeVectors
%block kgrid_Monkhorst_Pack
   1  0  0  0.
   0  1  0  0.
   0  0  1  0.
%endblock Kgrid_Monkhorst_Pack
xc.functional         GGA           # Exchange-correlation functional
xc.authors            PBE           # Exchange-correlation version
#SpinPolarized         true          # Logical parameters are: yes or no
MeshCutoff           200. Ry        # Mesh cutoff. real space mesh
# SCF options
#SCFMustConvergence     true
MaxSCFIterations       150          # Maximum number of SCF iter
DM.MixingWeight       0.02          # New DM amount for next SCF cycle
DM.Tolerance          3.d-4         # Tolerance in maximum difference
                                    # between input and output DM
DM.NumberPulay          6           # to use continuation files
#DM.NumberBroyden       3
#DM.AllowExtrapolation  false
MD.UseSaveData           true
Diag.DivideAndConquer 	true
SolutionMethod        diagon        # OrderN or Diagon
ElectronicTemperature  25 meV       # Temp. for Fermi smearing
# -----------------------------
#  MD options
#  options for a basic MD run
# -----------------------------
# Options to Integrate Equations of motion
MD.TypeOfRun         verlet         # Standard Verlet algrithm
                                    # for Molecular Dynamics
MD.LengthTimeStep         1 fs    # time step integration
                                    # Newton eqs of motion
MD.Initial.Time.Step     1          #initial time step of MD
MD.FinalTimeStep         100         #Final time step of MD
# Initial Atomic coordinates and Velocity for MD run
MD.InitialTemperature     0 K       #Assign initial random velocity from
                                    # a Maxwell-Boltzmann distribution
                                    # for a given temperature
MD.UseSaveXV 		true            # use atomic Positions
                                    # and Velocities from
                                    # a saved XV file
AtomicCoordinatesFormat Ang         #Use Angstroms for atomic coordinates
%block AtomicCoordinatesAndAtomicSpecies
        0.000000        0.000000        0.000000  1  ! O 1
        2.320000        0.000000        0.000000  1  ! O 2
        7.320000        0.000000        0.000000  1  ! O 3
        9.640000        0.000000        0.000000  1  ! O 4
        1.160000        0.000000        0.000000  2  ! C 5
        8.480000        0.000000        0.000000  2  ! C 6
%endblock AtomicCoordinatesAndAtomicSpecies
#MD Output
WriteCoorXmol          true         #Save the final coordinates in .xyz format
WriteMDXmol            true         #Writes the coordinates
                                    #of all atoms at all steps
                                    #in a .ANI file
                                    #in xyz format
WriteMDhistory         true         #writes .MDE and .MD files
                                    # with output data from MD simulation
                                    # MDE contains: Temp, energy, volume, pressure
                                    # (human readable)
                                    # MD contains coords vel lattice vectors
                                    # (unformatted; post-process with iomd.f)
************************** End of input data file *****************************

reinit: -----------------------------------------------------------------------
reinit: System Name: CO2 + CO2 -> 2CO + 2O reaction
reinit: -----------------------------------------------------------------------
reinit: System Label: xocCO2
reinit: -----------------------------------------------------------------------

initatom: Reading input for the pseudopotentials and atomic orbitals ----------
Species number:   1 Atomic number:    8 Label: O
Species number:   2 Atomic number:    6 Label: C

Ground state valence configuration:   2s02  2p04
Reading pseudopotential information in formatted form from O.psf

Valence configuration for pseudopotential generation:
2s( 2.00) rc: 1.47
2p( 4.00) rc: 1.47
3d( 0.00) rc: 1.47
4f( 0.00) rc: 1.47
Ground state valence configuration:   2s02  2p02
Reading pseudopotential information in formatted form from C.psf

Valence configuration for pseudopotential generation:
2s( 2.00) rc: 1.54
2p( 2.00) rc: 1.54
3d( 0.00) rc: 1.54
4f( 0.00) rc: 1.54
resizes: Read basis size for species C = dzp                 
resizes: Read basis size for species O = dzp                 
For O, standard SIESTA heuristics set lmxkb to 3
 (one more than the basis l, including polarization orbitals).
Use PS.lmax or PS.KBprojectors blocks to override.
For C, standard SIESTA heuristics set lmxkb to 3
 (one more than the basis l, including polarization orbitals).
Use PS.lmax or PS.KBprojectors blocks to override.

<basis_specs>
===============================================================================
O                    Z=   8    Mass=  16.000        Charge= 0.17977+309
Lmxo=1 Lmxkb= 3    BasisType=split      Semic=F
L=0  Nsemic=0  Cnfigmx=2
          i=1  nzeta=2  polorb=0  (2s)
            splnorm:   0.15000    
               vcte:    0.0000    
               rinn:    0.0000    
               qcoe:    0.0000    
               qyuk:    0.0000    
               qwid:   0.10000E-01
                rcs:    0.0000      0.0000    
            lambdas:    1.0000      1.0000    
L=1  Nsemic=0  Cnfigmx=2
          i=1  nzeta=2  polorb=1  (2p)
            splnorm:   0.15000    
               vcte:    0.0000    
               rinn:    0.0000    
               qcoe:    0.0000    
               qyuk:    0.0000    
               qwid:   0.10000E-01
                rcs:    0.0000      0.0000    
            lambdas:    1.0000      1.0000    
-------------------------------------------------------------------------------
L=0  Nkbl=1  erefs: 0.17977+309
L=1  Nkbl=1  erefs: 0.17977+309
L=2  Nkbl=1  erefs: 0.17977+309
L=3  Nkbl=1  erefs: 0.17977+309
===============================================================================
</basis_specs>

atom: Called for O                     (Z =   8)

read_vps: Pseudopotential generation method:
read_vps: ATM3      Troullier-Martins                       
Valence charge for ps generation:    6.00000

read_vps: Pseudopotential includes a core correction:
read_vps: Pseudo-core for xc-correction

xc_check: Exchange-correlation functional:
xc_check: GGA Perdew, Burke & Ernzerhof 1996
V l=0 = -2*Zval/r beyond r=  1.4482
V l=1 = -2*Zval/r beyond r=  1.4482
V l=2 = -2*Zval/r beyond r=  1.4482
V l=3 = -2*Zval/r beyond r=  1.4482
All V_l potentials equal beyond r=  1.4482
This should be close to max(r_c) in ps generation
All pots = -2*Zval/r beyond r=  1.4482

VLOCAL1: 99.0% of the norm of Vloc inside     20.696 Ry
VLOCAL1: 99.9% of the norm of Vloc inside     47.167 Ry
atom: Maximum radius for 4*pi*r*r*local-pseudopot. charge    1.74697
atom: Maximum radius for r*vlocal+2*Zval:    1.52250
GHOST: No ghost state for L =  0
GHOST: No ghost state for L =  1
GHOST: No ghost state for L =  2
GHOST: No ghost state for L =  3

KBgen: Kleinman-Bylander projectors: 
   l= 0   rc=  1.620715   el= -1.757696   Ekb=  4.880948   kbcos=  0.293490
   l= 1   rc=  1.600578   el= -0.664256   Ekb= -6.909822   kbcos= -0.499892
   l= 2   rc=  1.703827   el=  0.002031   Ekb= -1.539219   kbcos= -0.006778
   l= 3   rc=  1.746967   el=  0.003153   Ekb= -0.568983   kbcos= -0.000967

KBgen: Total number of Kleinman-Bylander projectors:   16
atom: -------------------------------------------------------------------------

atom: SANKEY-TYPE ORBITALS:
atom: Selected multiple-zeta basis: split     

SPLIT: Orbitals with angular momentum L= 0

SPLIT: Basis orbitals for state 2s

SPLIT: PAO cut-off radius determined from an
SPLIT: energy shift=  0.020000 Ry

   izeta = 1
                 lambda =    1.000000
                     rc =    3.305093
                 energy =   -1.740009
                kinetic =    1.602198
    potential(screened) =   -3.342207
       potential(ionic) =  -11.287121

   izeta = 2
                 rmatch =    2.510382
              splitnorm =    0.150000
                 energy =   -1.483129
                kinetic =    2.419988
    potential(screened) =   -3.903117
       potential(ionic) =  -12.432204

SPLIT: Orbitals with angular momentum L= 1

SPLIT: Basis orbitals for state 2p

SPLIT: PAO cut-off radius determined from an
SPLIT: energy shift=  0.020000 Ry

   izeta = 1
                 lambda =    1.000000
                     rc =    3.937239
                 energy =   -0.646301
                kinetic =    4.684247
    potential(screened) =   -5.330548
       potential(ionic) =  -13.029785

   izeta = 2
                 rmatch =    2.541963
              splitnorm =    0.150000
                 energy =   -0.369342
                kinetic =    6.896892
    potential(screened) =   -7.266234
       potential(ionic) =  -15.802088

POLgen: Perturbative polarization orbital with L=  2

POLgen: Polarization orbital for state 2p

   izeta = 1
                     rc =    3.937239
                 energy =    2.419602
                kinetic =    4.834162
    potential(screened) =   -2.414561
       potential(ionic) =   -8.756379
atom: Total number of Sankey-type orbitals: 13

atm_pop: Valence configuration (for local Pseudopot. screening):
 2s( 2.00)                                                            
 2p( 4.00)                                                            
Vna: chval, zval:    6.00000   6.00000

Vna:  Cut-off radius for the neutral-atom potential:   3.937239
comcore: Pseudo-core radius Rcore=  1.377587

atom: _________________________________________________________________________

<basis_specs>
===============================================================================
C                    Z=   6    Mass=  12.010        Charge= 0.17977+309
Lmxo=1 Lmxkb= 3    BasisType=split      Semic=F
L=0  Nsemic=0  Cnfigmx=2
          i=1  nzeta=2  polorb=0  (2s)
            splnorm:   0.15000    
               vcte:    0.0000    
               rinn:    0.0000    
               qcoe:    0.0000    
               qyuk:    0.0000    
               qwid:   0.10000E-01
                rcs:    0.0000      0.0000    
            lambdas:    1.0000      1.0000    
L=1  Nsemic=0  Cnfigmx=2
          i=1  nzeta=2  polorb=1  (2p)
            splnorm:   0.15000    
               vcte:    0.0000    
               rinn:    0.0000    
               qcoe:    0.0000    
               qyuk:    0.0000    
               qwid:   0.10000E-01
                rcs:    0.0000      0.0000    
            lambdas:    1.0000      1.0000    
-------------------------------------------------------------------------------
L=0  Nkbl=1  erefs: 0.17977+309
L=1  Nkbl=1  erefs: 0.17977+309
L=2  Nkbl=1  erefs: 0.17977+309
L=3  Nkbl=1  erefs: 0.17977+309
===============================================================================
</basis_specs>

atom: Called for C                     (Z =   6)

read_vps: Pseudopotential generation method:
read_vps: ATM3      Troullier-Martins                       
Valence charge for ps generation:    4.00000

read_vps: Pseudopotential includes a core correction:
read_vps: Pseudo-core for xc-correction

xc_check: Exchange-correlation functional:
xc_check: GGA Perdew, Burke & Ernzerhof 1996
V l=0 = -2*Zval/r beyond r=  1.5227
V l=1 = -2*Zval/r beyond r=  1.5227
V l=2 = -2*Zval/r beyond r=  1.5227
V l=3 = -2*Zval/r beyond r=  1.5038
All V_l potentials equal beyond r=  1.5227
This should be close to max(r_c) in ps generation
All pots = -2*Zval/r beyond r=  1.5227

VLOCAL1: 99.0% of the norm of Vloc inside     18.722 Ry
VLOCAL1: 99.9% of the norm of Vloc inside     42.668 Ry
atom: Maximum radius for 4*pi*r*r*local-pseudopot. charge    1.83678
atom: Maximum radius for r*vlocal+2*Zval:    1.58088
GHOST: No ghost state for L =  0
GHOST: No ghost state for L =  1
GHOST: No ghost state for L =  2
GHOST: No ghost state for L =  3

KBgen: Kleinman-Bylander projectors: 
   l= 0   rc=  1.704034   el= -1.009801   Ekb=  5.335044   kbcos=  0.316824
   l= 1   rc=  1.704034   el= -0.388707   Ekb= -3.785862   kbcos= -0.366464
   l= 2   rc=  1.791422   el=  0.001971   Ekb= -0.970471   kbcos= -0.009212
   l= 3   rc=  1.859892   el=  0.003065   Ekb= -0.399525   kbcos= -0.001223

KBgen: Total number of Kleinman-Bylander projectors:   16
atom: -------------------------------------------------------------------------

atom: SANKEY-TYPE ORBITALS:
atom: Selected multiple-zeta basis: split     

SPLIT: Orbitals with angular momentum L= 0

SPLIT: Basis orbitals for state 2s

SPLIT: PAO cut-off radius determined from an
SPLIT: energy shift=  0.020000 Ry

   izeta = 1
                 lambda =    1.000000
                     rc =    4.088342
                 energy =   -0.989105
                kinetic =    0.904439
    potential(screened) =   -1.893544
       potential(ionic) =   -5.484581

   izeta = 2
                 rmatch =    3.347176
              splitnorm =    0.150000
                 energy =   -0.835603
                kinetic =    1.364067
    potential(screened) =   -2.199670
       potential(ionic) =   -6.017020

SPLIT: Orbitals with angular momentum L= 1

SPLIT: Basis orbitals for state 2p

SPLIT: PAO cut-off radius determined from an
SPLIT: energy shift=  0.020000 Ry

   izeta = 1
                 lambda =    1.000000
                     rc =    4.870301
                 energy =   -0.368906
                kinetic =    2.520369
    potential(screened) =   -2.889275
       potential(ionic) =   -6.370528

   izeta = 2
                 rmatch =    3.475094
              splitnorm =    0.150000
                 energy =   -0.205913
                kinetic =    3.767535
    potential(screened) =   -3.973448
       potential(ionic) =   -7.809680

POLgen: Perturbative polarization orbital with L=  2

POLgen: Polarization orbital for state 2p

   izeta = 1
                     rc =    4.870301
                 energy =    1.296434
                kinetic =    2.645086
    potential(screened) =   -1.348652
       potential(ionic) =   -4.303965
atom: Total number of Sankey-type orbitals: 13

atm_pop: Valence configuration (for local Pseudopot. screening):
 2s( 2.00)                                                            
 2p( 2.00)                                                            
Vna: chval, zval:    4.00000   4.00000

Vna:  Cut-off radius for the neutral-atom potential:   4.870301
comcore: Pseudo-core radius Rcore=  1.791422

atom: _________________________________________________________________________

prinput: Basis input ----------------------------------------------------------

PAO.BasisType split     

%block ChemicalSpeciesLabel
    1    8 O                       # Species index, atomic number, species label
    2    6 C                       # Species index, atomic number, species label
%endblock ChemicalSpeciesLabel

%block PAO.Basis                 # Define Basis set
O                     2                    # Species label, number of l-shells
 n=2   0   2                         # n, l, Nzeta 
   3.305      2.510   
   1.000      1.000   
 n=2   1   2 P   1                   # n, l, Nzeta, Polarization, NzetaPol
   3.937      2.542   
   1.000      1.000   
C                     2                    # Species label, number of l-shells
 n=2   0   2                         # n, l, Nzeta 
   4.088      3.347   
   1.000      1.000   
 n=2   1   2 P   1                   # n, l, Nzeta, Polarization, NzetaPol
   4.870      3.475   
   1.000      1.000   
%endblock PAO.Basis

prinput: ----------------------------------------------------------------------

Dumping basis to NetCDF file O.ion.nc
Dumping basis to NetCDF file C.ion.nc
coor:   Atomic-coordinates input format  =     Cartesian coordinates
coor:                                          (in Angstroms)

ioxv: Reading coordinates and velocities from file
! Info in XV file prevails over previous structure input
WARNING: xocCO2.VERLET_RESTART not found--reading only XV file and moving back 1 time step using Euler

siesta: Atomic coordinates (Bohr) and species
siesta:     -0.50000   0.00000   0.00000  1        1
siesta:      3.88000   0.00000   0.00000  1        2
siesta:      9.88000   0.00000   0.00000  1        3
siesta:     14.26000   0.00000   0.00000  1        4
siesta:      1.69000   0.00000   0.00000  2        5
siesta:     12.07000   0.00000   0.00000  2        6

siesta: System type = chain     

initatomlists: Number of atoms, orbitals, and projectors:      6    78    96

coxmol: Writing XMOL coordinates into file xocCO2.xyz                                                          

siesta: ******************** Simulation parameters ****************************
siesta:
siesta: The following are some of the parameters of the simulation.
siesta: A complete list of the parameters used, including default values,
siesta: can be found in file out.fdf
siesta:
redata: Spin configuration                          = none
redata: Number of spin components                   = 1
redata: Time-Reversal Symmetry                      = T
redata: Spin spiral                                 = F
redata: Long output                                 =   F
redata: Number of Atomic Species                    =        2
redata: Charge density info will appear in .RHO file
redata: Write Mulliken Pop.                         = NO
redata: Matel table size (NRTAB)                    =     1024
redata: Mesh Cutoff                                 =   200.0000 Ry
redata: Net charge of the system                    =     0.0000 |e|
redata: Min. number of SCF Iter                     =        0
redata: Max. number of SCF Iter                     =      150
redata: SCF convergence failure will abort job
redata: SCF mix quantity                            = Hamiltonian
redata: Mix DM or H after convergence               =   F
redata: Recompute H after scf cycle                 =   F
redata: Mix DM in first SCF step                    =   T
redata: Write Pulay info on disk                    =   F
redata: New DM Occupancy tolerance                  = 0.000000000001
redata: No kicks to SCF
redata: DM Mixing Weight for Kicks                  =     0.5000
redata: Require Harris convergence for SCF          =   F
redata: Harris energy tolerance for SCF             =     0.000100 eV
redata: Require DM convergence for SCF              =   T
redata: DM tolerance for SCF                        =     0.000300
redata: Require EDM convergence for SCF             =   F
redata: EDM tolerance for SCF                       =     0.001000 eV
redata: Require H convergence for SCF               =   T
redata: Hamiltonian tolerance for SCF               =     0.001000 eV
redata: Require (free) Energy convergence for SCF   =   F
redata: (free) Energy tolerance for SCF             =     0.000100 eV
redata: Using Saved Data (generic)                  =   F
redata: Use continuation files for DM               =   F
redata: Neglect nonoverlap interactions             =   F
redata: Method of Calculation                       = Diagonalization
redata: Electronic Temperature                      =   290.1109 K
redata: Fix the spin of the system                  =   F
redata: Dynamics option                             = Verlet MD run
redata: Initial MD time step                        =        1
redata:   Final MD time step                        =      100
redata: Length of MD time step                      =     1.0000 fs
redata: Initial Temperature of MD run               =     0.0000 K
redata: Perform a MD quench                         =   F
mix.SCF: Pulay mixing                            = Pulay
mix.SCF:    Variant                              = stable
mix.SCF:    History steps                        = 6
mix.SCF:    Linear mixing weight                 =     0.020000
mix.SCF:    Mixing weight                        =     0.020000
mix.SCF:    SVD condition                        = 0.1000E-07
redata: Save all siesta data in one NC              =   F
redata: ***********************************************************************

%block SCF.Mixers
  Pulay
%endblock SCF.Mixers

%block SCF.Mixer.Pulay
  # Mixing method
  method pulay
  variant stable

  # Mixing options
  weight 0.0200
  weight.linear 0.0200
  history 6
%endblock SCF.Mixer.Pulay

Size of DM history Fstack: 1
Total number of electrons:    32.000000
Total ionic charge:    32.000000

* ProcessorY, Blocksize:    1  24


* Orbital distribution balance (max,min):    78    78

 Kpoints in:            1 . Kpoints trimmed:            1

siesta: k-grid: Number of k-points =     1
siesta: k-grid: Cutoff (effective) =     5.292 Ang
siesta: k-grid: Supercell and displacements
siesta: k-grid:    1   0   0      0.000
siesta: k-grid:    0   1   0      0.000
siesta: k-grid:    0   0   1      0.000

diag: Algorithm                                     = D&C
diag: Parallel over k                               =   F
diag: Use parallel 2D distribution                  =   F
diag: Parallel block-size                           = 24
diag: Parallel distribution                         =     1 x     1
diag: Used triangular part                          = Lower
diag: Absolute tolerance                            =  0.100E-15
diag: Orthogonalization factor                      =  0.100E-05
diag: Memory factor                                 =  1.0000


ts: **************************************************************
ts: Save H and S matrices                           =    F
ts: Save DM and EDM matrices                        =    F
ts: Only save the overlap matrix S                  =    F
ts: **************************************************************

************************ Begin: TS CHECKS AND WARNINGS ************************
************************ End: TS CHECKS AND WARNINGS **************************


                     ====================================
                        Begin MD step =      1
                     ====================================

outcell: Unit cell vectors (Ang):
       10.583540    0.000000    0.000000
        0.000000   10.583540    0.000000
        0.000000    0.000000   10.583540

outcell: Cell vector modules (Ang)   :   10.583540   10.583540   10.583540
outcell: Cell angles (23,13,12) (deg):     90.0000     90.0000     90.0000
outcell: Cell volume (Ang**3)        :   1185.4763
<dSpData1D:S at geom step 1
  <sparsity:sparsity for geom step 1
    nrows_g=78 nrows=78 sparsity=.7821 nnzs=4758, refcount: 7>
  <dData1D:(new from dSpData1D) n=4758, refcount: 1>
refcount: 1>
new_DM -- step:     1
Initializing Density Matrix...
DM filled with atomic data:
<dSpData2D:DM initialized from atoms
  <sparsity:sparsity for geom step 1
    nrows_g=78 nrows=78 sparsity=.7821 nnzs=4758, refcount: 8>
  <dData2D:DM n=4758 m=1, refcount: 1>
refcount: 1>
No. of atoms with KB's overlaping orbs in proc 0. Max # of overlaps:       6      43
New grid distribution:   1
           1       1:   48    1:   48    1:   48

InitMesh: MESH =    96 x    96 x    96 =      884736
InitMesh: (bp) =    48 x    48 x    48 =      110592
InitMesh: Mesh cutoff (required, used) =   200.000   227.396 Ry
ExtMesh (bp) on 0 =    96 x    96 x    96 =      884736
PhiOnMesh: Number of (b)points on node 0 =               110592
PhiOnMesh: nlist on node 0 =               302684

stepf: Fermi-Dirac step function

siesta: Program's energy decomposition (eV):
siesta: Ebs     =      -447.159864
siesta: Eions   =      2929.815578
siesta: Ena     =       341.803007
siesta: Ekin    =      1455.568623
siesta: Enl     =      -414.103019
siesta: Eso     =         0.000000
siesta: Edftu   =         0.000000
siesta: DEna    =        -6.565617
siesta: DUscf   =         4.533405
siesta: DUext   =         0.000000
siesta: Exc     =      -558.620045
siesta: eta*DQ  =         0.000000
siesta: Emadel  =         0.000000
siesta: Emeta   =         0.000000
siesta: Emolmec =         0.000000
siesta: Ekinion =         0.000000
siesta: Eharris =     -2110.919094
siesta: Etot    =     -2107.199225
siesta: FreeEng =     -2107.199225

        iscf     Eharris(eV)        E_KS(eV)     FreeEng(eV)     dDmax    Ef(eV) dHmax(eV)
   scf:    1    -2110.919094    -2107.199225    -2107.199225  1.488382 -4.131304  3.205454
timer: Routine,Calls,Time,% = IterSCF        1       2.302  35.46
   scf:    2    -2107.691389    -2107.447976    -2107.447976  0.004033 -4.129159  3.012448
   scf:    3    -2109.780654    -2109.286879    -2109.286879  0.063113 -4.122846  0.202909
   scf:    4    -2109.292316    -2109.289917    -2109.289917  0.001481 -4.124053  0.196684
   scf:    5    -2109.305302    -2109.299143    -2109.299143  0.009879 -4.150724  0.204228
   scf:    6    -2109.298625    -2109.299003    -2109.299003  0.001912 -4.129543  0.180019
   scf:    7    -2109.127615    -2109.244481    -2109.244481  0.013868 -4.128818  0.570032
   scf:    8    -2109.321621    -2109.302830    -2109.302830  0.012289 -4.076421  0.010620
   scf:    9    -2109.302827    -2109.302829    -2109.302829  0.000049 -4.075555  0.012383
   scf:   10    -2109.302842    -2109.302838    -2109.302838  0.000636 -4.079269  0.001332
   scf:   11    -2109.302839    -2109.302838    -2109.302838  0.000067 -4.079005  0.000223

SCF Convergence by DM+H criterion
max |DM_out - DM_in|         :     0.0000665048
max |H_out - H_in|      (eV) :     0.0002228791
SCF cycle converged after 11 iterations

Using DM_out to compute the final energy and forces
No. of atoms with KB's overlaping orbs in proc 0. Max # of overlaps:       6      43

siesta: E_KS(eV) =            -2109.3028

siesta: E_KS - E_eggbox =     -2109.3028

siesta: Atomic forces (eV/Ang):
----------------------------------------
   Tot   -0.054028   -0.000000   -0.000000
----------------------------------------
   Max    2.054646
   Res    0.933357    sqrt( Sum f_i^2 / 3N )
----------------------------------------
   Max    2.054646    constrained

Stress tensor Voigt[x,y,z,yz,xz,xy] (kbar):     -873.65        0.06        0.06       -0.00       -0.00       -0.00
(Free)E + p*V (eV/cell)    -1893.8569
Target enthalpy (eV/cell)    -2109.3028

siesta: Stress tensor (static) (eV/Ang**3):
        -0.006562   -0.000000    0.000000
        -0.000000    0.000036    0.000000
        -0.000000   -0.000000    0.000036

siesta: Pressure (static):          3.46666623  kBar

siesta: Stress tensor (total) (eV/Ang**3):
        -0.545285   -0.000000    0.000000
        -0.000000    0.000036    0.000000
        -0.000000   -0.000000    0.000036

siesta: Pressure (total):        291.17938647  kBar

siesta: Temp_ion =  497684.406 K

                     ====================================
                        Begin MD step =      2
                     ====================================

outcell: Unit cell vectors (Ang):
       10.583540    0.000000    0.000000
        0.000000   10.583540    0.000000
        0.000000    0.000000   10.583540

outcell: Cell vector modules (Ang)   :   10.583540   10.583540   10.583540
outcell: Cell angles (23,13,12) (deg):     90.0000     90.0000     90.0000
outcell: Cell volume (Ang**3)        :   1185.4763
<dSpData1D:S at geom step 2
  <sparsity:sparsity for geom step 2
    nrows_g=78 nrows=78 sparsity=.8176 nnzs=4974, refcount: 7>
  <dData1D:(new from dSpData1D) n=4974, refcount: 1>
refcount: 1>
new_DM -- step:     2
Re-using DM from previous geometries...
Number of DMs in history: 1
 DM extrapolation coefficients: 
1   1.00000
New DM after history re-use:
<dSpData2D:SpM extrapolated using coords
  <sparsity:sparsity for geom step 2
    nrows_g=78 nrows=78 sparsity=.8176 nnzs=4974, refcount: 9>
  <dData2D:(temp array for extrapolation) n=4974 m=1, refcount: 1>
refcount: 1>
No. of atoms with KB's overlaping orbs in proc 0. Max # of overlaps:       6      44
New grid distribution:   1
           1       1:   48    1:   48    1:   48

InitMesh: MESH =    96 x    96 x    96 =      884736
InitMesh: (bp) =    48 x    48 x    48 =      110592
InitMesh: Mesh cutoff (required, used) =   200.000   227.396 Ry
ExtMesh (bp) on 0 =    96 x    96 x    96 =      884736
PhiOnMesh: Number of (b)points on node 0 =               110592
PhiOnMesh: nlist on node 0 =               302778

        iscf     Eharris(eV)        E_KS(eV)     FreeEng(eV)     dDmax    Ef(eV) dHmax(eV)
   scf:    1    -2109.322791    -2109.283312    -2109.283312  0.132648 -4.123993  0.420710
   scf:    2    -2108.776008    -2109.133376    -2109.133376  0.028528 -4.171650  1.509457
   scf:    3    -2109.331008    -2109.295784    -2109.295784  0.022448 -4.125074  0.027104
   scf:    4    -2109.295842    -2109.295814    -2109.295814  0.000136 -4.125330  0.024139
   scf:    5    -2109.295992    -2109.295920    -2109.295920  0.001304 -4.127469  0.003784
   scf:    6    -2109.295921    -2109.295922    -2109.295922  0.000152 -4.127759  0.002096
mix: Pulay -- inversion failed, > SVD [rank/size] 4 / 5
   scf:    7    -2109.295921    -2109.295922    -2109.295922  0.000031 -4.127820  0.002763
   scf:    8    -2109.295923    -2109.295923    -2109.295923  0.000070 -4.128006  0.000166

SCF Convergence by DM+H criterion
max |DM_out - DM_in|         :     0.0000703535
max |H_out - H_in|      (eV) :     0.0001660184
SCF cycle converged after 8 iterations

Using DM_out to compute the final energy and forces
No. of atoms with KB's overlaping orbs in proc 0. Max # of overlaps:       6      44

siesta: E_KS(eV) =            -2109.2959

siesta: Atomic forces (eV/Ang):
----------------------------------------
   Tot    0.056737   -0.000000   -0.000000
----------------------------------------
   Max    1.935279
   Res    0.887751    sqrt( Sum f_i^2 / 3N )
----------------------------------------
   Max    1.935279    constrained

Stress tensor Voigt[x,y,z,yz,xz,xy] (kbar):     -873.53        0.05        0.05        0.00        0.00       -0.00
(Free)E + p*V (eV/cell)    -1893.8776
Target enthalpy (eV/cell)    -2109.2959

siesta: Stress tensor (static) (eV/Ang**3):
        -0.006483   -0.000000   -0.000000
        -0.000000    0.000031    0.000000
         0.000000    0.000000    0.000031

siesta: Pressure (static):          3.42929805  kBar

siesta: Stress tensor (total) (eV/Ang**3):
        -0.545206   -0.000000   -0.000000
        -0.000000    0.000031    0.000000
         0.000000    0.000000    0.000031

siesta: Pressure (total):        291.14201829  kBar

siesta: Temp_ion =  497627.864 K

                     ====================================
                        Begin MD step =      3
                     ====================================

outcell: Unit cell vectors (Ang):
       10.583540    0.000000    0.000000
        0.000000   10.583540    0.000000
        0.000000    0.000000   10.583540

outcell: Cell vector modules (Ang)   :   10.583540   10.583540   10.583540
outcell: Cell angles (23,13,12) (deg):     90.0000     90.0000     90.0000
outcell: Cell volume (Ang**3)        :   1185.4763
<dSpData1D:S at geom step 3
  <sparsity:sparsity for geom step 3
    nrows_g=78 nrows=78 sparsity=.8646 nnzs=5260, refcount: 7>
  <dData1D:(new from dSpData1D) n=5260, refcount: 1>
refcount: 1>
new_DM -- step:     3
Re-using DM from previous geometries...
Number of DMs in history: 1
 DM extrapolation coefficients: 
1   1.00000
New DM after history re-use:
<dSpData2D:SpM extrapolated using coords
  <sparsity:sparsity for geom step 3
    nrows_g=78 nrows=78 sparsity=.8646 nnzs=5260, refcount: 9>
  <dData2D:(temp array for extrapolation) n=5260 m=1, refcount: 1>
refcount: 1>
Note: For starting DM, Qtot, Tr[D*S] =         32.00000000         32.04161095
No. of atoms with KB's overlaping orbs in proc 0. Max # of overlaps:       6      56
New grid distribution:   1
           1       1:   48    1:   48    1:   48

InitMesh: MESH =    96 x    96 x    96 =      884736
InitMesh: (bp) =    48 x    48 x    48 =      110592
InitMesh: Mesh cutoff (required, used) =   200.000   227.396 Ry
ExtMesh (bp) on 0 =    96 x    96 x    96 =      884736
PhiOnMesh: Number of (b)points on node 0 =               110592
PhiOnMesh: nlist on node 0 =               302629

        iscf     Eharris(eV)        E_KS(eV)     FreeEng(eV)     dDmax    Ef(eV) dHmax(eV)
   scf:    1    -2108.395727    -2108.892302    -2108.892302  0.188384 -3.694852  1.343089
   scf:    2    -2103.759155    -2107.389862    -2107.389862  0.111732 -3.885166  5.169344
   scf:    3    -2109.410624    -2109.032328    -2109.032328  0.084525 -3.658229  0.183123
   scf:    4    -2109.027763    -2109.031401    -2109.031401  0.003468 -3.646495  0.196067
   scf:    5    -2109.035150    -2109.036393    -2109.036393  0.014946 -3.584389  0.128941
   scf:    6    -2109.038084    -2109.037509    -2109.037509  0.001187 -3.587961  0.031561
   scf:    7    -2109.037507    -2109.037510    -2109.037510  0.000119 -3.588893  0.029837
   scf:    8    -2109.037626    -2109.037608    -2109.037608  0.001392 -3.592968  0.009741
   scf:    9    -2109.037608    -2109.037608    -2109.037608  0.000036 -3.592870  0.010031
   scf:   10    -2109.037615    -2109.037614    -2109.037614  0.000198 -3.593018  0.000171

SCF Convergence by DM+H criterion
max |DM_out - DM_in|         :     0.0001977301
max |H_out - H_in|      (eV) :     0.0001714312
SCF cycle converged after 10 iterations

Using DM_out to compute the final energy and forces
No. of atoms with KB's overlaping orbs in proc 0. Max # of overlaps:       6      56

siesta: E_KS(eV) =            -2109.0376

siesta: Atomic forces (eV/Ang):
----------------------------------------
   Tot   -0.103541   -0.000000   -0.000000
----------------------------------------
   Max    1.548608
   Res    0.509722    sqrt( Sum f_i^2 / 3N )
----------------------------------------
   Max    1.548608    constrained

Stress tensor Voigt[x,y,z,yz,xz,xy] (kbar):     -878.33        0.05        0.05        0.00       -0.00       -0.00
(Free)E + p*V (eV/cell)    -1892.4368
Target enthalpy (eV/cell)    -2109.0376

siesta: Stress tensor (static) (eV/Ang**3):
        -0.009542   -0.000000   -0.000000
        -0.000000    0.000034   -0.000000
         0.000000    0.000000    0.000034

siesta: Pressure (static):          5.06011463  kBar

siesta: Stress tensor (total) (eV/Ang**3):
        -0.548204    0.000000   -0.000000
        -0.000000    0.000034   -0.000000
        -0.000000    0.000000    0.000034

siesta: Pressure (total):        292.74014746  kBar

siesta: Temp_ion =  496973.217 K

                     ====================================
                        Begin MD step =      4
                     ====================================

outcell: Unit cell vectors (Ang):
       10.583540    0.000000    0.000000
        0.000000   10.583540    0.000000
        0.000000    0.000000   10.583540

outcell: Cell vector modules (Ang)   :   10.583540   10.583540   10.583540
outcell: Cell angles (23,13,12) (deg):     90.0000     90.0000     90.0000
outcell: Cell volume (Ang**3)        :   1185.4763
<dSpData1D:S at geom step 4
  <sparsity:sparsity for geom step 4
    nrows_g=78 nrows=78 sparsity=.8909 nnzs=5420, refcount: 7>
  <dData1D:(new from dSpData1D) n=5420, refcount: 1>
refcount: 1>
new_DM -- step:     4
Re-using DM from previous geometries...
Number of DMs in history: 1
 DM extrapolation coefficients: 
1   1.00000
New DM after history re-use:
<dSpData2D:SpM extrapolated using coords
  <sparsity:sparsity for geom step 4
    nrows_g=78 nrows=78 sparsity=.8909 nnzs=5420, refcount: 9>
  <dData2D:(temp array for extrapolation) n=5420 m=1, refcount: 1>
refcount: 1>
Note: For starting DM, Qtot, Tr[D*S] =         32.00000000         32.03558631
No. of atoms with KB's overlaping orbs in proc 0. Max # of overlaps:       6      60
New grid distribution:   1
           1       1:   48    1:   48    1:   48

InitMesh: MESH =    96 x    96 x    96 =      884736
InitMesh: (bp) =    48 x    48 x    48 =      110592
InitMesh: Mesh cutoff (required, used) =   200.000   227.396 Ry
ExtMesh (bp) on 0 =    96 x    96 x    96 =      884736
PhiOnMesh: Number of (b)points on node 0 =               110592
PhiOnMesh: nlist on node 0 =               302492

        iscf     Eharris(eV)        E_KS(eV)     FreeEng(eV)     dDmax    Ef(eV) dHmax(eV)
   scf:    1    -2100.640104    -2105.138703    -2105.138703  0.286608 -0.454043  2.305557
   scf:    2    -2093.062446    -2101.619577    -2101.619577  0.153436 -1.516530  8.679911
   scf:    3    -2106.417633    -2105.477296    -2105.477296  0.113692 -0.596130  0.378059
   scf:    4    -2105.398826    -2105.453877    -2105.453877  0.010482 -0.512695  0.614874
   scf:    5    -2105.440154    -2105.480738    -2105.480738  0.032955 -0.501009  0.527180
   scf:    6    -2105.497751    -2105.494930    -2105.494930  0.004615 -0.471930  0.087502
   scf:    7    -2105.495385    -2105.495187    -2105.495187  0.000409 -0.470870  0.069638
   scf:    8    -2105.495461    -2105.495558    -2105.495558  0.002022 -0.476689  0.027037
   scf:    9    -2105.495573    -2105.495576    -2105.495576  0.000215 -0.476981  0.024461
   scf:   10    -2105.495610    -2105.495606    -2105.495606  0.000372 -0.479774  0.001792
   scf:   11    -2105.495606    -2105.495606    -2105.495606  0.000024 -0.479501  0.000252

SCF Convergence by DM+H criterion
max |DM_out - DM_in|         :     0.0000244865
max |H_out - H_in|      (eV) :     0.0002515376
SCF cycle converged after 11 iterations

Using DM_out to compute the final energy and forces
No. of atoms with KB's overlaping orbs in proc 0. Max # of overlaps:       6      60

siesta: E_KS(eV) =            -2105.4956

siesta: Atomic forces (eV/Ang):
----------------------------------------
   Tot    0.065064    0.000000   -0.000000
----------------------------------------
   Max   11.412447
   Res    3.934477    sqrt( Sum f_i^2 / 3N )
----------------------------------------
   Max   11.412447    constrained

Stress tensor Voigt[x,y,z,yz,xz,xy] (kbar):     -912.14        0.05        0.05        0.00        0.00        0.00
(Free)E + p*V (eV/cell)    -1880.5540
Target enthalpy (eV/cell)    -2105.4956

siesta: Stress tensor (static) (eV/Ang**3):
        -0.031352   -0.000000   -0.000000
         0.000000    0.000031    0.000000
         0.000000    0.000000    0.000031

siesta: Pressure (static):         16.71132963  kBar

siesta: Stress tensor (total) (eV/Ang**3):
        -0.569305    0.000000   -0.000000
         0.000000    0.000031    0.000000
         0.000000    0.000000    0.000031

siesta: Pressure (total):        304.01290958  kBar

siesta: Temp_ion =  489941.367 K

                     ====================================
                        Begin MD step =      5
                     ====================================

outcell: Unit cell vectors (Ang):
       10.583540    0.000000    0.000000
        0.000000   10.583540    0.000000
        0.000000    0.000000   10.583540

outcell: Cell vector modules (Ang)   :   10.583540   10.583540   10.583540
outcell: Cell angles (23,13,12) (deg):     90.0000     90.0000     90.0000
outcell: Cell volume (Ang**3)        :   1185.4763
<dSpData1D:S at geom step 5
  <sparsity:sparsity for geom step 5
    nrows_g=78 nrows=78 sparsity=.9313 nnzs=5666, refcount: 7>
  <dData1D:(new from dSpData1D) n=5666, refcount: 1>
refcount: 1>
new_DM -- step:     5
Re-using DM from previous geometries...
Number of DMs in history: 1
 DM extrapolation coefficients: 
1   1.00000
New DM after history re-use:
<dSpData2D:SpM extrapolated using coords
  <sparsity:sparsity for geom step 5
    nrows_g=78 nrows=78 sparsity=.9313 nnzs=5666, refcount: 9>
  <dData2D:(temp array for extrapolation) n=5666 m=1, refcount: 1>
refcount: 1>
Note: For starting DM, Qtot, Tr[D*S] =         32.00000000         31.69873788
No. of atoms with KB's overlaping orbs in proc 0. Max # of overlaps:       6      61
New grid distribution:   1
           1       1:   48    1:   48    1:   48

InitMesh: MESH =    96 x    96 x    96 =      884736
InitMesh: (bp) =    48 x    48 x    48 =      110592
InitMesh: Mesh cutoff (required, used) =   200.000   227.396 Ry
ExtMesh (bp) on 0 =    96 x    96 x    96 =      884736
PhiOnMesh: Number of (b)points on node 0 =               110592
PhiOnMesh: nlist on node 0 =               302638

        iscf     Eharris(eV)        E_KS(eV)     FreeEng(eV)     dDmax    Ef(eV) dHmax(eV)
   scf:    1    -2065.515416    -2086.876531    -2086.945846  0.863065 -0.157355  6.197778
   scf:    2    -2001.157885    -2061.230133    -2061.230133  0.535585 -0.552220 27.119361
   scf:    3    -2087.782706    -2088.123930    -2088.193245  0.503817 -0.063562  2.159700
   scf:    4    -2079.096635    -2085.441246    -2085.525424  0.463027  0.007246  7.915628
   scf:    5    -2070.962027    -2079.080596    -2079.082658  0.254402 -0.090946 14.545041
   scf:    6    -2088.778458    -2088.345160    -2088.414582  0.717495  0.012778  0.385452
   scf:    7    -2088.113128    -2088.266611    -2088.335927  0.013573  0.001940  1.453463
   scf:    8    -2088.222115    -2088.246473    -2088.315788  0.005407 -0.014177  1.784846
   scf:    9    -2088.396512    -2088.332001    -2088.401330  0.009049 -0.020376  1.063590
   scf:   10    -2088.334825    -2088.333419    -2088.402749  0.000198 -0.020548  1.044149
   scf:   11    -2088.377982    -2088.358634    -2088.428150  0.005080 -0.028357  0.527120
   scf:   12    -2088.362298    -2088.365466    -2088.437045  0.007983 -0.037566  0.080289
   scf:   13    -2088.366954    -2088.366458    -2088.437406  0.002128 -0.035726  0.030343
   scf:   14    -2088.366134    -2088.366313    -2088.437441  0.000557 -0.035722  0.012866
   scf:   15    -2088.366815    -2088.366638    -2088.437285  0.001810 -0.034979  0.068733
   scf:   16    -2088.365971    -2088.366388    -2088.437445  0.001234 -0.035780  0.009566
   scf:   17    -2088.366674    -2088.366552    -2088.437421  0.000578 -0.035601  0.028990
   scf:   18    -2088.366245    -2088.366412    -2088.437451  0.000519 -0.035973  0.005181
   scf:   19    -2088.366435    -2088.366424    -2088.437451  0.000053 -0.036153  0.004293
   scf:   20    -2088.366027    -2088.366236    -2088.437431  0.000513 -0.036239  0.024479
   scf:   21    -2088.366568    -2088.366412    -2088.437453  0.000475 -0.035955  0.003412
   scf:   22    -2088.366226    -2088.366321    -2088.437448  0.000307 -0.036919  0.012951
   scf:   23    -2088.366478    -2088.366402    -2088.437454  0.000231 -0.036772  0.000561

SCF Convergence by DM+H criterion
max |DM_out - DM_in|         :     0.0002309053
max |H_out - H_in|      (eV) :     0.0005605242
SCF cycle converged after 23 iterations

Using DM_out to compute the final energy and forces
No. of atoms with KB's overlaping orbs in proc 0. Max # of overlaps:       6      61

siesta: E_KS(eV) =            -2088.3664

siesta: Atomic forces (eV/Ang):
----------------------------------------
   Tot    0.015589    0.000000   -0.000000
----------------------------------------
   Max   16.751106
   Res    6.124496    sqrt( Sum f_i^2 / 3N )
----------------------------------------
   Max   16.751106    constrained

Stress tensor Voigt[x,y,z,yz,xz,xy] (kbar):     -940.49        0.03        0.03        0.00       -0.00        0.00
(Free)E + p*V (eV/cell)    -1856.4931
Target enthalpy (eV/cell)    -2088.4375

siesta: Stress tensor (static) (eV/Ang**3):
        -0.056658   -0.000000   -0.000000
        -0.000000    0.000017    0.000000
        -0.000000    0.000000    0.000017

siesta: Pressure (static):         30.24083374  kBar

siesta: Stress tensor (total) (eV/Ang**3):
        -0.586999    0.000000    0.000000
         0.000000    0.000017    0.000000
        -0.000000    0.000000    0.000017

siesta: Pressure (total):        313.47728160  kBar

siesta: Temp_ion =  473124.577 K

                     ====================================
                        Begin MD step =      6
                     ====================================

outcell: Unit cell vectors (Ang):
       10.583540    0.000000    0.000000
        0.000000   10.583540    0.000000
        0.000000    0.000000   10.583540

outcell: Cell vector modules (Ang)   :   10.583540   10.583540   10.583540
outcell: Cell angles (23,13,12) (deg):     90.0000     90.0000     90.0000
outcell: Cell volume (Ang**3)        :   1185.4763
<dSpData1D:S at geom step 6
  <sparsity:sparsity for geom step 6
    nrows_g=78 nrows=78 sparsity=.9602 nnzs=5842, refcount: 7>
  <dData1D:(new from dSpData1D) n=5842, refcount: 1>
refcount: 1>
new_DM -- step:     6
Re-using DM from previous geometries...
Number of DMs in history: 1
 DM extrapolation coefficients: 
1   1.00000
New DM after history re-use:
<dSpData2D:SpM extrapolated using coords
  <sparsity:sparsity for geom step 6
    nrows_g=78 nrows=78 sparsity=.9602 nnzs=5842, refcount: 9>
  <dData2D:(temp array for extrapolation) n=5842 m=1, refcount: 1>
refcount: 1>
Note: For starting DM, Qtot, Tr[D*S] =         32.00000000         31.81874971
No. of atoms with KB's overlaping orbs in proc 0. Max # of overlaps:       6      69
New grid distribution:   1
           1       1:   48    1:   48    1:   48

InitMesh: MESH =    96 x    96 x    96 =      884736
InitMesh: (bp) =    48 x    48 x    48 =      110592
InitMesh: Mesh cutoff (required, used) =   200.000   227.396 Ry
ExtMesh (bp) on 0 =    96 x    96 x    96 =      884736
PhiOnMesh: Number of (b)points on node 0 =               110592
PhiOnMesh: nlist on node 0 =               302780

        iscf     Eharris(eV)        E_KS(eV)     FreeEng(eV)     dDmax    Ef(eV) dHmax(eV)
   scf:    1    -1929.803886    -1961.357996    -1961.427310  0.873184 -1.471540  8.816205
   scf:    2    -1924.971252    -1951.907504    -1951.976819  0.345821 -0.631449 19.653459
   scf:    3    -1966.973338    -1963.929063    -1963.998378  0.234948 -1.171216  1.143973
   scf:    4    -1963.892190    -1963.960780    -1964.030095  0.032319 -1.103990  2.493006
   scf:    5    -1963.853130    -1964.032494    -1964.101809  0.038223 -1.185669  1.277519
   scf:    6    -1964.064411    -1964.054596    -1964.123910  0.019000 -1.174038  0.812713
   scf:    7    -1964.116019    -1964.108980    -1964.178295  0.013138 -1.197006  0.606073
   scf:    8    -1964.116128    -1964.115010    -1964.184324  0.004279 -1.199419  0.275588
   scf:    9    -1964.115341    -1964.117287    -1964.186601  0.004412 -1.206305  0.145219
   scf:   10    -1964.118124    -1964.118007    -1964.187322  0.002289 -1.223476  0.016495
   scf:   11    -1964.118023    -1964.118018    -1964.187333  0.000352 -1.224773  0.004421
   scf:   12    -1964.118022    -1964.118020    -1964.187335  0.000140 -1.225113  0.003661
   scf:   13    -1964.118022    -1964.118021    -1964.187336  0.000053 -1.225281  0.003934
   scf:   14    -1964.118024    -1964.118023    -1964.187337  0.000136 -1.225806  0.004466
   scf:   15    -1964.118023    -1964.118023    -1964.187338  0.000056 -1.225847  0.004472
   scf:   16    -1964.118027    -1964.118025    -1964.187340  0.000303 -1.225996  0.000538
   scf:   17    -1964.118025    -1964.118025    -1964.187340  0.000002 -1.225995  0.000520

SCF Convergence by DM+H criterion
max |DM_out - DM_in|         :     0.0000019511
max |H_out - H_in|      (eV) :     0.0005196261
SCF cycle converged after 17 iterations

Using DM_out to compute the final energy and forces
No. of atoms with KB's overlaping orbs in proc 0. Max # of overlaps:       6      69

siesta: E_KS(eV) =            -1964.1180

siesta: Atomic forces (eV/Ang):
----------------------------------------
   Tot   -0.049829    0.000000   -0.000000
----------------------------------------
   Max  887.956312
   Res  296.005181    sqrt( Sum f_i^2 / 3N )
----------------------------------------
   Max  887.956312    constrained

Stress tensor Voigt[x,y,z,yz,xz,xy] (kbar):    -1560.69        0.00        0.00        0.00        0.00        0.00
(Free)E + p*V (eV/cell)    -1579.2659
Target enthalpy (eV/cell)    -1964.1873

siesta: Stress tensor (static) (eV/Ang**3):
        -0.461956    0.000000   -0.000000
         0.000000    0.000000   -0.000000
         0.000000    0.000000    0.000000

siesta: Pressure (static):        246.71405433  kBar

siesta: Stress tensor (total) (eV/Ang**3):
        -0.974094    0.000000   -0.000000
         0.000000    0.000000   -0.000000
         0.000000    0.000000    0.000000

siesta: Pressure (total):        520.22867006  kBar

siesta: Temp_ion =  299342.963 K

                     ====================================
                        Begin MD step =      7
                     ====================================

outcell: Unit cell vectors (Ang):
       10.583540    0.000000    0.000000
        0.000000   10.583540    0.000000
        0.000000    0.000000   10.583540

outcell: Cell vector modules (Ang)   :   10.583540   10.583540   10.583540
outcell: Cell angles (23,13,12) (deg):     90.0000     90.0000     90.0000
outcell: Cell volume (Ang**3)        :   1185.4763
<dSpData1D:S at geom step 7
  <sparsity:sparsity for geom step 7
    nrows_g=78 nrows=78 sparsity=.9918 nnzs=6034, refcount: 7>
  <dData1D:(new from dSpData1D) n=6034, refcount: 1>
refcount: 1>
new_DM -- step:     7
Re-using DM from previous geometries...
Number of DMs in history: 1
 DM extrapolation coefficients: 
1   1.00000
New DM after history re-use:
<dSpData2D:SpM extrapolated using coords
  <sparsity:sparsity for geom step 7
    nrows_g=78 nrows=78 sparsity=.9918 nnzs=6034, refcount: 9>
  <dData2D:(temp array for extrapolation) n=6034 m=1, refcount: 1>
refcount: 1>
Note: For starting DM, Qtot, Tr[D*S] =         32.00000000         33.69425783
No. of atoms with KB's overlaping orbs in proc 0. Max # of overlaps:       6      73
New grid distribution:   1
           1       1:   48    1:   48    1:   48

InitMesh: MESH =    96 x    96 x    96 =      884736
InitMesh: (bp) =    48 x    48 x    48 =      110592
InitMesh: Mesh cutoff (required, used) =   200.000   227.396 Ry
ExtMesh (bp) on 0 =    96 x    96 x    96 =      884736
PhiOnMesh: Number of (b)points on node 0 =               110592
PhiOnMesh: nlist on node 0 =               302459

        iscf     Eharris(eV)        E_KS(eV)     FreeEng(eV)     dDmax    Ef(eV) dHmax(eV)
   scf:    1    -1885.867583    -1913.725256    -1913.725256  2.800686  2.921082 15.213130
   scf:    2    -1660.130415    -1841.916714    -1841.916714  1.141060  2.364044 33.602261
   scf:    3    -1929.949137    -1923.576222    -1923.576222  0.991769  3.853649  5.455615
   scf:    4    -1919.064828    -1923.278818    -1923.278818  0.258975  3.308713  6.874632
   scf:    5    -1926.499762    -1925.493620    -1925.493620  0.312589  4.370291  1.373133
   scf:    6    -1922.228730    -1924.214004    -1924.214004  0.087448  4.328479  4.931070
   scf:    7    -1924.630205    -1925.409496    -1925.409496  0.279004  4.132674  2.197042
   scf:    8    -1925.720798    -1925.587902    -1925.587902  0.081455  3.931925  1.098167
   scf:    9    -1925.496514    -1925.545458    -1925.545458  0.039927  4.036631  1.591067
   scf:   10    -1925.614963    -1925.643663    -1925.643663  0.139647  4.445035  0.402641
   scf:   11    -1925.653318    -1925.649757    -1925.649757  0.021720  4.514981  0.117397
   scf:   12    -1925.648416    -1925.650104    -1925.650104  0.016339  4.574556  0.164571
   scf:   13    -1925.651077    -1925.650958    -1925.650958  0.014066  4.533857  0.013054
   scf:   14    -1925.650966    -1925.650964    -1925.650964  0.001076  4.536869  0.001430
   scf:   15    -1925.650964    -1925.650964    -1925.650964  0.000040  4.536770  0.001473
   scf:   16    -1925.650964    -1925.650964    -1925.650964  0.000025  4.536767  0.001367
   scf:   17    -1925.650965    -1925.650964    -1925.650964  0.000022  4.536878  0.001110
   scf:   18    -1925.650965    -1925.650964    -1925.650964  0.000015  4.536875  0.001059
   scf:   19    -1925.650965    -1925.650965    -1925.650965  0.000070  4.536942  0.000622

SCF Convergence by DM+H criterion
max |DM_out - DM_in|         :     0.0000701223
max |H_out - H_in|      (eV) :     0.0006220849
SCF cycle converged after 19 iterations

Using DM_out to compute the final energy and forces
No. of atoms with KB's overlaping orbs in proc 0. Max # of overlaps:       6      73

siesta: E_KS(eV) =            -1925.6510

siesta: Atomic forces (eV/Ang):
----------------------------------------
   Tot    0.175970   -0.000000    0.000000
----------------------------------------
   Max  534.334589
   Res  233.913840    sqrt( Sum f_i^2 / 3N )
----------------------------------------
   Max  534.334589    constrained

Stress tensor Voigt[x,y,z,yz,xz,xy] (kbar):    -1572.34       -0.01       -0.01        0.00        0.00       -0.00
(Free)E + p*V (eV/cell)    -1537.8529
Target enthalpy (eV/cell)    -1925.6510

siesta: Stress tensor (static) (eV/Ang**3):
        -0.657340   -0.000000   -0.000000
        -0.000000   -0.000003    0.000000
         0.000000    0.000000   -0.000003

siesta: Pressure (static):        351.06559790  kBar

siesta: Stress tensor (total) (eV/Ang**3):
        -0.981366   -0.000000   -0.000000
        -0.000000   -0.000003    0.000000
         0.000000    0.000000   -0.000003

siesta: Pressure (total):        524.11658594  kBar

siesta: Temp_ion =  218251.445 K

                     ====================================
                        Begin MD step =      8
                     ====================================

outcell: Unit cell vectors (Ang):
       10.583540    0.000000    0.000000
        0.000000   10.583540    0.000000
        0.000000    0.000000   10.583540

outcell: Cell vector modules (Ang)   :   10.583540   10.583540   10.583540
outcell: Cell angles (23,13,12) (deg):     90.0000     90.0000     90.0000
outcell: Cell volume (Ang**3)        :   1185.4763
<dSpData1D:S at geom step 8
  <sparsity:sparsity for geom step 8
    nrows_g=78 nrows=78 sparsity=.9918 nnzs=6034, refcount: 7>
  <dData1D:(new from dSpData1D) n=6034, refcount: 1>
refcount: 1>
new_DM -- step:     8
Re-using DM from previous geometries...
Number of DMs in history: 1
 DM extrapolation coefficients: 
1   1.00000
New DM after history re-use:
<dSpData2D:SpM extrapolated using coords
  <sparsity:sparsity for geom step 8
    nrows_g=78 nrows=78 sparsity=.9918 nnzs=6034, refcount: 9>
  <dData2D:(temp array for extrapolation) n=6034 m=1, refcount: 1>
refcount: 1>
Note: For starting DM, Qtot, Tr[D*S] =         32.00000000         33.61692598
No. of atoms with KB's overlaping orbs in proc 0. Max # of overlaps:       6      73
New grid distribution:   1
           1       1:   48    1:   48    1:   48

InitMesh: MESH =    96 x    96 x    96 =      884736
InitMesh: (bp) =    48 x    48 x    48 =      110592
InitMesh: Mesh cutoff (required, used) =   200.000   227.396 Ry
ExtMesh (bp) on 0 =    96 x    96 x    96 =      884736
PhiOnMesh: Number of (b)points on node 0 =               110592
PhiOnMesh: nlist on node 0 =               302503

        iscf     Eharris(eV)        E_KS(eV)     FreeEng(eV)     dDmax    Ef(eV) dHmax(eV)
   scf:    1    -1961.716792    -1977.135273    -1977.135273  1.108562  4.867699  9.455166
   scf:    2    -1881.502920    -1950.514338    -1950.561619  8.086411 10.380968 29.939807
   scf:    3    -1980.612683    -1981.188552    -1981.188552  7.766929  7.682318  3.400649
   scf:    4    -1976.118616    -1980.262054    -1980.262174  1.729109  8.982156  7.770805
   scf:    5    -1982.746240    -1981.685135    -1981.685136  0.711625  8.665174  4.411828
   scf:    6    -1982.468744    -1982.297575    -1982.297575  0.600868  8.138748  0.545727
   scf:    7    -1981.029612    -1981.846161    -1981.846161  0.548668  8.718988  3.311256
   scf:    8    -1982.292234    -1982.309173    -1982.309173  0.646607  8.074771  0.727729
   scf:    9    -1982.336196    -1982.325823    -1982.325823  0.059075  8.150741  0.261451
   scf:   10    -1982.327383    -1982.326643    -1982.326643  0.006771  8.161855  0.204386
   scf:   11    -1982.328650    -1982.327851    -1982.327851  0.017297  8.194955  0.052769
   scf:   12    -1982.327947    -1982.327903    -1982.327903  0.002382  8.198342  0.033807
   scf:   13    -1982.327959    -1982.327941    -1982.327941  0.005291  8.204081  0.002047
   scf:   14    -1982.327942    -1982.327942    -1982.327942  0.000297  8.204209  0.001312
   scf:   15    -1982.327942    -1982.327942    -1982.327942  0.000087  8.204211  0.001217
   scf:   16    -1982.327942    -1982.327942    -1982.327942  0.000022  8.204199  0.001148
   scf:   17    -1982.327942    -1982.327942    -1982.327942  0.000050  8.204241  0.000874

SCF Convergence by DM+H criterion
max |DM_out - DM_in|         :     0.0000497047
max |H_out - H_in|      (eV) :     0.0008739674
SCF cycle converged after 17 iterations

Using DM_out to compute the final energy and forces
No. of atoms with KB's overlaping orbs in proc 0. Max # of overlaps:       6      73

siesta: E_KS(eV) =            -1982.3279

siesta: Atomic forces (eV/Ang):
----------------------------------------
   Tot    0.072321   -0.000000   -0.000000
----------------------------------------
   Max  185.070767
   Res   71.659300    sqrt( Sum f_i^2 / 3N )
----------------------------------------
   Max  185.070767    constrained

Stress tensor Voigt[x,y,z,yz,xz,xy] (kbar):    -1322.82        0.04        0.04       -0.00        0.00       -0.00
(Free)E + p*V (eV/cell)    -1656.0913
Target enthalpy (eV/cell)    -1982.3279

siesta: Stress tensor (static) (eV/Ang**3):
        -0.589383   -0.000000    0.000000
        -0.000000    0.000024    0.000000
         0.000000   -0.000000    0.000024

siesta: Pressure (static):        314.74327702  kBar

siesta: Stress tensor (total) (eV/Ang**3):
        -0.825631   -0.000000    0.000000
        -0.000000    0.000024    0.000000
         0.000000   -0.000000    0.000024

siesta: Pressure (total):        440.91503601  kBar

siesta: Temp_ion =  150703.917 K

                     ====================================
                        Begin MD step =      9
                     ====================================

outcell: Unit cell vectors (Ang):
       10.583540    0.000000    0.000000
        0.000000   10.583540    0.000000
        0.000000    0.000000   10.583540

outcell: Cell vector modules (Ang)   :   10.583540   10.583540   10.583540
outcell: Cell angles (23,13,12) (deg):     90.0000     90.0000     90.0000
outcell: Cell volume (Ang**3)        :   1185.4763
siesta: WARNING: Atoms     1     5 too close: rij =    0.459818 Ang
siesta: WARNING: Atoms     4     6 too close: rij =    0.460159 Ang
<dSpData1D:S at geom step 9
  <sparsity:sparsity for geom step 9
    nrows_g=78 nrows=78 sparsity=.9947 nnzs=6052, refcount: 7>
  <dData1D:(new from dSpData1D) n=6052, refcount: 1>
refcount: 1>
new_DM -- step:     9
Re-using DM from previous geometries...
Number of DMs in history: 1
 DM extrapolation coefficients: 
1   1.00000
New DM after history re-use:
<dSpData2D:SpM extrapolated using coords
  <sparsity:sparsity for geom step 9
    nrows_g=78 nrows=78 sparsity=.9947 nnzs=6052, refcount: 9>
  <dData2D:(temp array for extrapolation) n=6052 m=1, refcount: 1>
refcount: 1>
Note: For starting DM, Qtot, Tr[D*S] =         32.00000000         31.07685961
No. of atoms with KB's overlaping orbs in proc 0. Max # of overlaps:       6      74
New grid distribution:   1
           1       1:   48    1:   48    1:   48

InitMesh: MESH =    96 x    96 x    96 =      884736
InitMesh: (bp) =    48 x    48 x    48 =      110592
InitMesh: Mesh cutoff (required, used) =   200.000   227.396 Ry
ExtMesh (bp) on 0 =    96 x    96 x    96 =      884736
PhiOnMesh: Number of (b)points on node 0 =               110592
PhiOnMesh: nlist on node 0 =               302649

        iscf     Eharris(eV)        E_KS(eV)     FreeEng(eV)     dDmax    Ef(eV) dHmax(eV)
   scf:    1    -1631.768299    -1653.554400    -1653.623715  4.394454  8.964930 14.253384
   scf:    2    -1557.602915    -1629.484329    -1629.484329  4.427100  1.202407 35.814249
   scf:    3    -1667.597148    -1652.313275    -1652.313275  0.700584  7.830898 13.902097
   scf:    4    -1651.379403    -1651.852439    -1651.852439  0.044741  7.683980 14.673192
   scf:    5    -1643.890056    -1648.232567    -1648.232567  0.204511  7.319383 19.219048
   scf:    6    -1618.271441    -1649.956188    -1650.025503  4.448606 10.152724 21.873752
   scf:    7    -1653.973093    -1652.008457    -1652.077772  0.050687  9.767192 19.008696
   scf:    8    -1628.396913    -1652.261848    -1652.261853  4.386868  7.926115 14.607593
   scf:    9    -1643.872604    -1656.332146    -1656.401461  4.406345  8.415036  9.385263
   scf:   10    -1653.605224    -1655.025228    -1655.094543  0.042537  8.788878 12.795819
   scf:   11    -1649.270277    -1652.278509    -1652.347824  0.077819  9.277647 17.799646
   scf:   12    -1656.136119    -1654.269547    -1654.338862  0.054855  8.951639 14.367449
   scf:   13    -1652.872630    -1653.579695    -1653.649010  0.018894  9.077528 15.656337
   scf:   14    -1654.554713    -1654.071580    -1654.140895  0.013502  9.005528 14.786880
   scf:   15    -1618.512211    -1649.168643    -1649.168643  4.415018  6.252098 20.107196
   scf:   16    -1643.587966    -1656.510391    -1656.579724  4.372188  8.331538  8.776141
   scf:   17    -1634.036932    -1652.842064    -1652.842099  4.347591  7.753566 14.154306
   scf:   18    -1659.123420    -1656.387335    -1656.444991  0.880534  8.145236  8.437355
   scf:   19    -1650.330853    -1653.632268    -1653.639423  0.821056  8.018460 12.780742
   scf:   20    -1652.736789    -1653.189160    -1653.189914  0.052766  7.903671 13.506331
   scf:   21    -1653.114621    -1653.151921    -1653.152471  0.003958  7.887619 13.577116
   scf:   22    -1654.086169    -1653.624242    -1653.631388  0.054417  8.021657 12.779616
   scf:   23    -1649.418007    -1657.362305    -1657.444021  4.010106  8.231142  6.722130
   scf:   24    -1652.339305    -1657.432928    -1657.506889  2.720088  8.153903  6.177593
   scf:   25    -1658.469925    -1657.991616    -1658.074050  0.349255  8.185767  4.554665
   scf:   26    -1645.417328    -1652.932673    -1652.932749  1.705674  7.786049 13.993997
   scf:   27    -1652.893178    -1652.912933    -1652.912995  0.002366  7.777904 14.029880
   scf:   28    -1652.915996    -1652.914466    -1652.914523  0.000740  7.785320 14.020725
   scf:   29    -1656.600042    -1654.856198    -1654.888751  0.386669  8.031278 11.079526
   scf:   30    -1645.888004    -1656.419400    -1656.488715  4.012921  8.262796  9.038375
   scf:   31    -1656.826789    -1656.625363    -1656.694915  0.032984  8.229806  8.392677
   scf:   32    -1637.339989    -1653.712818    -1653.722917  4.292563  7.973332 12.712535
   scf:   33    -1655.221948    -1654.483935    -1654.509656  0.193507  8.006679 11.638168
   scf:   34    -1660.110455    -1658.200522    -1658.286399  1.587300  8.115462  3.873231
   scf:   35    -1651.480233    -1656.929226    -1657.003802  2.421477  8.173241  7.615856
   scf:   36    -1658.593750    -1658.698726    -1658.793645  1.623027  8.127378  0.121056
   scf:   37    -1653.960380    -1657.155518    -1657.233753  1.528383  8.155899  7.085898
   scf:   38    -1657.130029    -1658.523121    -1658.614288  1.978851  8.107120  2.284346
   scf:   39    -1658.181681    -1658.611486    -1658.706757  0.859292  8.124724  1.761677
   scf:   40    -1658.585525    -1658.598719    -1658.693919  0.023936  8.127047  1.879667
   scf:   41    -1658.658278    -1658.629918    -1658.725279  0.061271  8.119330  1.573345
   scf:   42    -1658.579108    -1658.605430    -1658.700660  0.054648  8.112395  1.803127
   scf:   43    -1658.639612    -1658.622968    -1658.718292  0.035708  8.111701  1.635391
   scf:   44    -1658.725331    -1658.695099    -1658.790466  0.242692  8.105849  0.483693
   scf:   45    -1658.700351    -1658.700582    -1658.795707  0.088584  8.094150  0.048309
   scf:   46    -1658.654218    -1658.685330    -1658.780788  0.160277  8.085927  0.744044
   scf:   47    -1658.698987    -1658.700783    -1658.795924  0.143535  8.053451  0.029218
   scf:   48    -1658.700728    -1658.700822    -1658.796010  0.014434  8.053184  0.036495
   scf:   49    -1658.700852    -1658.700838    -1658.796021  0.001336  8.052020  0.027138
   scf:   50    -1658.700798    -1658.700821    -1658.796012  0.002675  8.052923  0.041855
   scf:   51    -1658.700910    -1658.700872    -1658.796061  0.003838  8.038582  0.006723
   scf:   52    -1658.700848    -1658.700863    -1658.796060  0.003168  8.038099  0.019481
   scf:   53    -1658.700863    -1658.700863    -1658.796059  0.000593  8.038667  0.020115
   scf:   54    -1658.700863    -1658.700863    -1658.796059  0.000110  8.038588  0.020493
   scf:   55    -1658.700877    -1658.700871    -1658.796069  0.003471  8.030280  0.007260
   scf:   56    -1658.700872    -1658.700871    -1658.796070  0.000272  8.029237  0.005059
   scf:   57    -1658.700873    -1658.700872    -1658.796070  0.000345  8.027509  0.002219
   scf:   58    -1658.700871    -1658.700872    -1658.796071  0.000499  8.026304  0.000774
   scf:   59    -1658.700868    -1658.700870    -1658.796070  0.001440  8.022873  0.005911
   scf:   60    -1658.700873    -1658.700872    -1658.796071  0.001162  8.026018  0.000200
   scf:   61    -1658.700871    -1658.700872    -1658.796071  0.000034  8.026019  0.000170

SCF Convergence by DM+H criterion
max |DM_out - DM_in|         :     0.0000337376
max |H_out - H_in|      (eV) :     0.0001698419
SCF cycle converged after 61 iterations

Using DM_out to compute the final energy and forces
No. of atoms with KB's overlaping orbs in proc 0. Max # of overlaps:       6      74

siesta: E_KS(eV) =            -1658.7009

siesta: Atomic forces (eV/Ang):
----------------------------------------
   Tot    0.055011   -0.000000    0.000000
----------------------------------------
   Max 1298.705913
   Res  600.426130    sqrt( Sum f_i^2 / 3N )
----------------------------------------
   Max 1298.705913    constrained

Stress tensor Voigt[x,y,z,yz,xz,xy] (kbar):    -2104.77        0.01        0.01        0.00       -0.00       -0.00
(Free)E + p*V (eV/cell)    -1139.6888
Target enthalpy (eV/cell)    -1658.7961

siesta: Stress tensor (static) (eV/Ang**3):
        -1.150552   -0.000000    0.000000
        -0.000000    0.000007    0.000000
        -0.000000    0.000000    0.000007

siesta: Pressure (static):        614.46115480  kBar

siesta: Stress tensor (total) (eV/Ang**3):
        -1.313682   -0.000000    0.000000
        -0.000000    0.000007    0.000000
        -0.000000    0.000000    0.000007

siesta: Pressure (total):        701.58350248  kBar

siesta: Temp_ion =  372492.270 K

                     ====================================
                        Begin MD step =     10
                     ====================================

outcell: Unit cell vectors (Ang):
       10.583540    0.000000    0.000000
        0.000000   10.583540    0.000000
        0.000000    0.000000   10.583540

outcell: Cell vector modules (Ang)   :   10.583540   10.583540   10.583540
outcell: Cell angles (23,13,12) (deg):     90.0000     90.0000     90.0000
outcell: Cell volume (Ang**3)        :   1185.4763
siesta: WARNING: Atoms     2     5 too close: rij =    0.213363 Ang
siesta: WARNING: Atoms     3     6 too close: rij =    0.214563 Ang
<dSpData1D:S at geom step 10
  <sparsity:sparsity for geom step 10
    nrows_g=78 nrows=78 sparsity=.9444 nnzs=5746, refcount: 7>
  <dData1D:(new from dSpData1D) n=5746, refcount: 1>
refcount: 1>
new_DM -- step:    10
Re-using DM from previous geometries...
Number of DMs in history: 1
 DM extrapolation coefficients: 
1   1.00000
New DM after history re-use:
<dSpData2D:SpM extrapolated using coords
  <sparsity:sparsity for geom step 10
    nrows_g=78 nrows=78 sparsity=.9444 nnzs=5746, refcount: 9>
  <dData2D:(temp array for extrapolation) n=5746 m=1, refcount: 1>
refcount: 1>
Note: For starting DM, Qtot, Tr[D*S] =         32.00000000         32.32480635
No. of atoms with KB's overlaping orbs in proc 0. Max # of overlaps:       6      65
New grid distribution:   1
           1       1:   48    1:   48    1:   48

InitMesh: MESH =    96 x    96 x    96 =      884736
InitMesh: (bp) =    48 x    48 x    48 =      110592
InitMesh: Mesh cutoff (required, used) =   200.000   227.396 Ry
ExtMesh (bp) on 0 =    96 x    96 x    96 =      884736
PhiOnMesh: Number of (b)points on node 0 =               110592
PhiOnMesh: nlist on node 0 =               302416

        iscf     Eharris(eV)        E_KS(eV)     FreeEng(eV)     dDmax    Ef(eV) dHmax(eV)
   scf:    1     -103.555785     -157.987374     -157.987374  3.348081 -1.074154 29.399318
   scf:    2     1742.726105      392.705117      392.635802  3.639827 -0.527088 92.735911
   scf:    3       -9.342411     -178.409788     -178.409788  3.560294 -1.440927 19.227601
   scf:    4       83.093931     -125.826816     -125.896131  3.891374  0.482542 34.573298
   scf:    5      849.886947      280.478015      280.408700  2.004044  1.813212 76.805596
   scf:    6      336.343575      308.229865      308.160550  0.213099  1.420465 79.998080
   scf:    7      140.318496      220.366476      220.284626  1.963728  2.529606 79.350343
   scf:    8      413.446985      312.907738      312.838424  1.945189  1.500282 81.103974
   scf:    9       -7.403879      139.146560      139.077238  4.892330  3.918414 77.290874
   scf:   10      567.777647      335.972188      335.902873  5.376691 -0.871692 81.899582
   scf:   11      311.879692     -115.283700     -115.283700  2.680411-13.803346 53.631001
   scf:   12     -222.226336     -173.619068     -173.619068  0.955757 -6.812910 28.338887
   scf:   13      -87.565010     -179.685012     -179.685134  3.136110 -1.528961 28.794041
   scf:   14      -93.908944     -140.789176     -140.794469  0.620789 -0.746206 44.410847
   scf:   15     -135.065720     -139.255303     -139.342101  0.530967 -0.235061 41.223463
   scf:   16      -25.901292      -86.716675      -86.786224  0.834069  0.648060 49.304138
   scf:   17     -173.883415     -138.019955     -138.025889  1.280984 -0.581309 45.225686
   scf:   18     -176.087379     -203.065180     -203.065180  2.873782 -2.515296  9.196081
   scf:   19     -201.094454     -205.516569     -205.516569  1.031098 -1.857813  8.570432
   scf:   20     -206.901841     -206.320271     -206.320271  0.187156 -1.941658  5.906543
   scf:   21     -206.523973     -206.424089     -206.424089  0.023160 -2.032404  5.424093
   scf:   22     -202.779574     -204.815991     -204.815991  0.203626 -1.669054  9.625460
   scf:   23     -205.217762     -206.742953     -206.742953  0.680024 -2.195168  2.436906
   scf:   24     -206.986200     -206.873920     -206.873920  0.054883 -2.161567  1.986415
   scf:   25     -199.500227     -204.018295     -204.018295  0.489167 -2.242441  6.506779
   scf:   26     -208.119847     -206.724531     -206.724531  0.453602 -2.207389  2.435023
   scf:   27     -204.409909     -206.033158     -206.033158  0.215768 -2.356387  6.476852
   scf:   28     -207.479299     -207.188416     -207.188416  0.402352 -2.401256  1.412902
   scf:   29     -207.093913     -207.218558     -207.218558  0.112304 -2.380967  0.791056
   scf:   30     -206.342361     -206.993785     -206.993785  0.196879 -2.418688  2.868237
   scf:   31     -207.320358     -207.219848     -207.219848  0.106126 -2.457463  1.075296
   scf:   32     -206.135439     -206.923688     -206.923688  0.277182 -2.458908  2.956175
   scf:   33     -207.144196     -207.232259     -207.232259  0.245829 -2.464017  0.822529
   scf:   34     -207.260585     -207.251819     -207.251819  0.031567 -2.472888  0.471612
   scf:   35     -207.257506     -207.257981     -207.257981  0.026409 -2.469144  0.118088
   scf:   36     -207.258527     -207.258367     -207.258367  0.006532 -2.468397  0.074093
   scf:   37     -207.247621     -207.255097     -207.255097  0.021617 -2.462316  0.327326
   scf:   38     -207.259476     -207.258813     -207.258813  0.016372 -2.462823  0.036191
   scf:   39     -207.258795     -207.258811     -207.258811  0.000888 -2.462383  0.033257
   scf:   40     -207.258754     -207.258789     -207.258789  0.001434 -2.459556  0.027534
   scf:   41     -207.258841     -207.258817     -207.258817  0.000733 -2.459579  0.027278
   scf:   42     -207.259003     -207.258912     -207.258912  0.001225 -2.462033  0.023190
   scf:   43     -207.259231     -207.259101     -207.259101  0.005952 -2.478598  0.015213
   scf:   44     -207.259104     -207.259106     -207.259106  0.000982 -2.478455  0.005618
   scf:   45     -207.259106     -207.259106     -207.259106  0.000030 -2.478614  0.005602
   scf:   46     -207.259110     -207.259108     -207.259108  0.000260 -2.479299  0.005250
   scf:   47     -207.259108     -207.259108     -207.259108  0.000065 -2.479310  0.005162
   scf:   48     -207.259110     -207.259109     -207.259109  0.000254 -2.479422  0.004752
   scf:   49     -207.259111     -207.259110     -207.259110  0.000156 -2.479152  0.002811
   scf:   50     -207.259110     -207.259110     -207.259110  0.000029 -2.479235  0.002531
   scf:   51     -207.259110     -207.259110     -207.259110  0.000064 -2.479120  0.002031
   scf:   52     -207.259110     -207.259110     -207.259110  0.000035 -2.479204  0.001904
   scf:   53     -207.259110     -207.259110     -207.259110  0.000076 -2.479584  0.001884
   scf:   54     -207.259111     -207.259110     -207.259110  0.000148 -2.479829  0.001758
   scf:   55     -207.259111     -207.259110     -207.259110  0.000037 -2.479934  0.001564
   scf:   56     -207.259111     -207.259111     -207.259111  0.000097 -2.480196  0.000869

SCF Convergence by DM+H criterion
max |DM_out - DM_in|         :     0.0000969034
max |H_out - H_in|      (eV) :     0.0008694982
SCF cycle converged after 56 iterations

Using DM_out to compute the final energy and forces
No. of atoms with KB's overlaping orbs in proc 0. Max # of overlaps:       6      65

siesta: E_KS(eV) =             -207.2591

siesta: Atomic forces (eV/Ang):
----------------------------------------
   Tot    0.143891   -0.000000    0.000000
----------------------------------------
   Max 6766.548474
   Res 3118.139007    sqrt( Sum f_i^2 / 3N )
----------------------------------------
   Max 6766.548474    constrained

Stress tensor Voigt[x,y,z,yz,xz,xy] (kbar):    -4778.60       -0.09       -0.09       -0.00       -0.00        0.00
(Free)E + p*V (eV/cell)      971.3572
Target enthalpy (eV/cell)     -207.2591

siesta: Stress tensor (static) (eV/Ang**3):
        -2.579325    0.000000   -0.000000
         0.000000   -0.000054   -0.000000
        -0.000000   -0.000000   -0.000054

siesta: Pressure (static):       1377.58383210  kBar

siesta: Stress tensor (total) (eV/Ang**3):
        -2.982533    0.000000   -0.000000
         0.000000   -0.000054   -0.000000
        -0.000000   -0.000000   -0.000054

siesta: Pressure (total):       1592.92263497  kBar

siesta: Temp_ion =18005682.589 K

                     ====================================
                        Begin MD step =     11
                     ====================================

outcell: Unit cell vectors (Ang):
       10.583540    0.000000    0.000000
        0.000000   10.583540    0.000000
        0.000000    0.000000   10.583540

outcell: Cell vector modules (Ang)   :   10.583540   10.583540   10.583540
outcell: Cell angles (23,13,12) (deg):     90.0000     90.0000     90.0000
outcell: Cell volume (Ang**3)        :   1185.4763
siesta: WARNING: Atoms     1     3 too close: rij =    0.179810 Ang
siesta: WARNING: Atoms     2     4 too close: rij =    0.233247 Ang
siesta: WARNING: Atoms     5     6 too close: rij =    0.113671 Ang
<dSpData1D:S at geom step 11
  <sparsity:sparsity for geom step 11
    nrows_g=78 nrows=78 sparsity=1.0000 nnzs=6084, refcount: 7>
  <dData1D:(new from dSpData1D) n=6084, refcount: 1>
refcount: 1>
new_DM -- step:    11
Re-using DM from previous geometries...
Number of DMs in history: 1
 DM extrapolation coefficients: 
1   1.00000
New DM after history re-use:
<dSpData2D:SpM extrapolated using coords
  <sparsity:sparsity for geom step 11
    nrows_g=78 nrows=78 sparsity=1.0000 nnzs=6084, refcount: 9>
  <dData2D:(temp array for extrapolation) n=6084 m=1, refcount: 1>
refcount: 1>
Note: For starting DM, Qtot, Tr[D*S] =         32.00000000         40.24967302
No. of atoms with KB's overlaping orbs in proc 0. Max # of overlaps:       6      78
New grid distribution:   1
           1       1:   48    1:   48    1:   48

InitMesh: MESH =    96 x    96 x    96 =      884736
InitMesh: (bp) =    48 x    48 x    48 =      110592
InitMesh: Mesh cutoff (required, used) =   200.000   227.396 Ry
ExtMesh (bp) on 0 =    96 x    96 x    96 =      884736
PhiOnMesh: Number of (b)points on node 0 =               110592
PhiOnMesh: nlist on node 0 =               302751

        iscf     Eharris(eV)        E_KS(eV)     FreeEng(eV)     dDmax    Ef(eV) dHmax(eV)
   scf:    1     3383.583661     2622.680828     2622.680828 45.500576  1.612758 64.148852
   scf:    2     5368.622636     3399.410602     3399.410589 42.656967  1.396264140.957670
   scf:    3     2408.339271     2494.398353     2494.329038 32.417167  7.069966 26.386273
   scf:    4     2568.200692     2502.289939     2502.289798 16.246279  6.994951 23.632011
   scf:    5     2611.529140     2548.426046     2548.402602  6.133898  4.585512 25.260178
   scf:    6     2517.293614     2529.220019     2529.108843  2.871092  4.280882 24.041920
   scf:    7     2590.549425     2556.379825     2556.348250  2.390770  3.442770 28.054357
   scf:    8     2773.607650     2557.013579     2556.944264 16.523420 -3.410809 45.435872
   scf:    9     2477.602532     2514.176935     2514.176647 15.163786  2.048998 23.669043
   scf:   10     2486.304199     2483.377718     2483.283843  4.014182  5.007833 12.297082
   scf:   11     2519.183493     2498.272449     2498.194654  2.459433  4.731939 19.491821
   scf:   12     2505.315624     2499.454767     2499.360953  1.873563  4.131788 15.532015
   scf:   13     2502.045640     2497.467861     2497.408953  2.252281  4.069191 13.379971
   scf:   14     2623.412617     2514.673737     2514.547917 11.464494  4.933680 19.645253
   scf:   15     2560.989834     2504.015062     2503.945739 11.457352  4.367321 19.671907
   scf:   16     2476.338402     2488.045960     2487.945635  2.775728  4.776112 13.721726
   scf:   17     2519.778279     2501.869221     2501.799302  2.433399  4.884502 20.277834
   scf:   18     2480.163904     2481.387510     2481.318071  3.748098  4.970200  5.596542
   scf:   19     2526.449391     2496.925668     2496.838920  3.906278  4.745812 18.233237
   scf:   20     2482.898574     2482.578586     2482.509258  4.282265  4.944115  6.890238
   scf:   21     2592.019441     2516.365004     2516.365004  5.190970  5.054450 33.010763
   scf:   22     2534.275386     2524.915120     2524.915120  2.835711  5.092297 34.218964
   scf:   23     2604.741091     2501.684801     2501.615487  8.992033  5.519391 20.707537
   scf:   24     2625.146492     2509.062116     2509.061859 10.074719  6.311146 21.866628
   scf:   25     2544.989127     2487.957551     2487.860301  8.251165  5.311461 15.199666
   scf:   26     2476.396354     2478.756330     2478.686062  2.323767  5.476482  6.402201
   scf:   27     2478.277478     2478.464322     2478.395008  0.716508  5.905955  5.327755
   scf:   28     2542.486534     2500.224393     2500.155075  3.948629  5.439035 20.279225
   scf:   29     2501.449349     2500.830478     2500.761163  0.247140  5.516012 20.560757
   scf:   30     2489.088151     2494.693716     2494.611628  1.688450  5.316629 17.782087
   scf:   31     2507.359529     2500.531276     2500.461962  1.729258  6.075595 21.419057
   scf:   32     2610.413172     2506.021401     2506.021401  9.824353  6.694092 20.310860
   scf:   33     2490.419948     2479.345967     2479.274913  9.614421  6.285760  5.036227
   scf:   34     2479.281865     2479.313512     2479.243168  0.083187  6.285925  4.904361
   scf:   35     2478.601701     2478.942807     2478.873438  0.253701  6.183431  5.112551
   scf:   36     2480.980278     2479.876193     2479.806878  0.577384  6.061560  4.407676
   scf:   37     2477.533160     2478.512626     2478.443311  0.869754  5.781935  5.639678
   scf:   38     2545.499741     2501.277165     2501.207850  4.280535  5.749965 20.325692
   scf:   39     2504.594202     2502.872424     2502.803096  0.761557  6.093909 21.292538
   scf:   40     2502.099329     2502.476538     2502.407221  0.234677  6.239795 20.783831
   scf:   41     2502.707579     2502.590418     2502.521103  0.170082  6.172869 20.826936
   scf:   42     2510.656173     2501.780082     2501.780082  9.863090  5.420655 18.201177
   scf:   43     2495.963563     2497.692614     2497.603717  4.989145  5.737684 17.183316
   scf:   44     2948.357287     2608.743151     2608.673836  8.634305  4.631124 55.134031
   scf:   45     2440.440953     2482.082432     2481.986988  3.493038  7.454570  8.445668
   scf:   46     2479.248783     2477.906009     2477.836694  2.096039  5.851613  5.701226
   scf:   47     2546.150818     2499.986325     2499.977090  9.138738  5.648753 16.883247
   scf:   48     2504.325098     2502.129893     2502.129893  0.777558  5.519038 18.162161
   scf:   49     2496.126861     2494.590304     2494.516779  9.925204  5.342414 17.266781
   scf:   50     2502.389360     2498.389738     2498.320419  1.112232  5.556892 18.963648
   scf:   51     2509.675755     2498.983375     2498.983375  9.427180  4.786868 15.687269
   scf:   52     2500.933386     2499.947438     2499.947438  0.335721  4.956607 16.730487
   scf:   53     2497.535599     2498.729668     2498.729231  0.478127  4.979358 16.391748
   scf:   54     2493.271707     2495.929308     2495.915589  0.651594  4.633897 14.549778
   scf:   55     2609.028260     2512.251025     2512.176087  6.648080  4.106648 28.935279
   scf:   56     2701.134669     2593.902688     2593.833364  5.494842  5.384906 47.815805
   scf:   57     2614.216994     2603.507806     2603.438492  1.570688  3.079839 55.641987
   scf:   58     2608.626591     2605.709216     2605.639901  2.272738  3.952858 57.224423
   scf:   59     2459.471431     2518.451741     2518.451741  4.857845  4.779433 35.946040
   scf:   60     2590.753908     2500.577426     2500.577426  8.143807  5.426062 17.111232
   scf:   61     2500.656531     2500.615617     2500.615617  0.189240  5.300090 16.805637
   scf:   62     2515.249578     2503.287245     2503.217930  9.592799  6.627875 23.558375
   scf:   63     2613.561408     2505.571775     2505.570963  9.904995  5.925557 22.064291
   scf:   64     2515.163621     2482.105123     2482.026070  8.760493  5.720815 12.136457
   scf:   65     2477.207252     2478.004625     2477.935306  2.477688  5.615043  4.751317
   scf:   66     2536.653819     2498.100570     2498.030429  4.123698  5.405986 18.213951
   scf:   67     2475.929009     2477.878440     2477.806581  4.454743  5.306180  3.929658
   scf:   68     2537.796077     2496.924579     2496.899613  8.412536  5.005633 14.832715
   scf:   69     2498.780002     2497.829177     2497.828616  0.536281  4.795892 15.535835
   scf:   70     2497.241180     2497.534294     2497.531413  0.159918  4.814990 15.210533
   scf:   71     2503.287074     2500.357554     2500.357554  0.437768  5.200948 17.225084
   scf:   72     2502.001482     2501.173273     2501.173273  0.283734  5.621255 17.999761
   scf:   73     2607.043595     2507.720243     2507.720197  8.566663  5.502141 25.551154
   scf:   74     2483.019443     2478.111798     2478.040890  8.053955  5.232325  3.456781
   scf:   75     2561.271353     2503.207230     2503.206252  8.810729  5.237557 22.054691
   scf:   76     2579.152009     2496.187249     2496.112903  9.172344  5.008146 17.142399
   scf:   77     2489.781439     2478.147686     2478.053343  5.129179  5.135299  4.562464
   scf:   78     2477.702830     2477.753334     2477.664232  0.933380  5.229166  3.101016
   scf:   79     2478.604987     2477.918014     2477.844380  1.213601  5.123783  3.052836
   scf:   80     2477.992344     2477.954833     2477.882223  0.045212  5.130865  3.190565
   scf:   81     2478.117582     2478.034967     2477.964474  0.100805  5.170033  3.466270
   scf:   82     2545.298512     2498.648525     2498.648525  9.439777  4.714781 15.877342
   scf:   83     2497.327927     2497.985156     2497.985108  0.253868  4.771865 15.219522
   scf:   84     2482.311580     2489.369327     2489.296510  2.246151  4.815413 10.064607
   scf:   85     2508.210798     2497.988201     2497.983140  2.177366  4.909809 15.289927
   scf:   86     2498.989697     2498.486909     2498.482531  0.121699  5.025425 15.747660
   scf:   87     2498.415704     2498.450962     2498.449928  0.076680  4.950909 15.660429
   scf:   88     2508.209241     2503.190696     2503.190696  0.994317  5.425117 20.123160
   scf:   89     2608.430266     2508.252385     2508.244903  9.216640  5.893505 25.531838
   scf:   90     2621.479013     2557.942562     2557.850679  7.780555  6.200614 37.985085
   scf:   91     2480.290640     2478.725164     2478.655849  4.623317  6.610100  8.170104
   scf:   92     2558.640528     2501.272099     2501.267088  9.514503  5.350676 20.596276
   scf:   93     2509.394140     2504.783623     2504.782275  2.248378  6.429609 22.393356
   scf:   94     2487.424663     2478.330723     2478.261391  7.705742  5.878084  6.533852
   scf:   95     2541.670478     2498.245214     2498.245213  9.456967  4.582834 15.519750
   scf:   96     2493.720728     2482.859325     2482.742008  7.401639  5.073376  9.704344
   scf:   97     2496.769008     2485.330074     2485.246251  2.874659  5.237494  6.643917
   scf:   98     2510.730296     2495.802232     2495.759464  3.473675  5.283121 14.435319
   scf:   99     2474.221138     2481.193869     2481.062382  3.967985  5.102734  4.218358
   scf:  100     2522.472360     2497.899104     2497.898544  4.526282  5.130233 15.047054
   scf:  101     2478.302458     2479.793850     2479.691341  9.215199  4.742742  7.329022
   scf:  102     2481.156444     2478.448692     2478.290769  5.684092  4.861825  3.450042
   scf:  103     2490.869474     2483.659664     2483.538457  3.585914  4.623998  5.316319
   scf:  104     2485.645591     2477.916677     2477.828516  8.211210  4.626791  2.980108
   scf:  105     2477.531430     2477.708447     2477.620443  0.476154  4.673996  2.608974
   scf:  106     2479.141850     2478.218792     2478.123255  1.103208  4.648501  4.501831
   scf:  107     2477.429417     2477.648657     2477.559205  0.947443  4.679072  2.590345
   scf:  108     2480.418851     2478.647753     2478.551540  1.416256  4.688238  5.280528
   scf:  109     2477.932100     2478.263135     2478.168706  0.445585  4.787749  4.574799
   scf:  110     2553.780559     2499.219776     2499.219776  7.718483  4.682834 16.363433
   scf:  111     2485.152208     2477.294556     2477.187690  8.274972  4.660343  2.031726
   scf:  112     2479.078013     2477.978166     2477.873779  0.821898  4.620234  4.073417
   scf:  113     2477.917001     2476.952130     2476.812196  1.428160  4.548003  1.480383
   scf:  114     2490.682462     2480.780044     2480.653423  3.340201  4.364978  9.010879
   scf:  115     2478.917510     2479.621077     2479.520291  1.899175  4.482826  6.607118
   scf:  116     2492.474722     2485.209497     2485.124624  2.002301  4.457144 12.248220
   scf:  117     2475.007586     2478.713356     2478.615741  2.719523  4.536943  5.107078
   scf:  118     2480.182317     2479.406293     2479.307710  0.421912  4.578037  6.317750
   scf:  119     2479.429786     2479.417612     2479.321576  0.078494  4.599011  6.282459
   scf:  120     2477.120572     2478.042237     2477.948072  1.082339  4.618793  3.850808
   scf:  121     2548.628559     2497.782178     2497.768054  7.361605  4.406812 15.148410
   scf:  122     2489.917098     2477.834166     2477.739458  7.623565  4.618031  3.416625
   scf:  123     2477.876892     2477.848635     2477.748792  0.266800  4.601620  3.521719
   scf:  124     2544.583106     2496.705545     2496.681624  7.211777  4.626994 14.472681
   scf:  125     2498.404627     2497.551201     2497.541927  0.164533  4.637834 14.815679
   scf:  126     2490.162487     2477.875007     2477.783250  7.777778  4.563552  3.363845
   scf:  127     2478.096489     2477.979971     2477.887357  0.143783  4.624664  3.714517
   scf:  128     2480.495004     2477.369571     2477.206525  2.178748  4.570646  2.785107
   scf:  129     2487.161467     2481.364451     2481.205332  1.734951  4.540220  7.148579
   scf:  130     2501.009801     2490.116531     2490.018314  2.237367  4.658777 11.799184
   scf:  131     2501.519492     2495.596609     2495.559812  1.157646  4.646309 13.999138
   scf:  132     2480.912245     2476.922703     2476.780902  5.649111  4.594120  2.214315
   scf:  133     2480.596804     2478.400763     2478.298495  0.944233  4.593164  4.632255
   scf:  134     2478.033194     2478.213958     2478.107856  0.130422  4.614521  4.341267
   scf:  135     2477.609825     2477.892064     2477.769603  0.510589  4.522412  4.223243
   scf:  136     2504.602046     2484.356936     2484.219835  4.394894  4.610496  8.405230
   scf:  137     2499.814915     2491.503277     2491.417046  1.037431  4.621979 12.409464
   scf:  138     2475.377032     2482.412737     2482.259531  1.992712  4.593024  7.681771
   scf:  139     2488.360528     2478.592735     2478.492251  4.105300  4.500504  4.922159
   scf:  140     2476.084576     2476.863387     2476.725435  1.468828  4.758930  1.623674
   scf:  141     2476.817450     2476.768931     2476.615927  0.699030  4.626506  1.251813
   scf:  142     2477.006315     2476.840146     2476.700657  0.654678  4.730548  1.395166
   scf:  143     2477.582068     2477.142866     2477.001701  0.722586  4.717399  3.006189
   scf:  144     2478.346233     2477.652446     2477.533953  0.996309  4.646150  3.469722
   scf:  145     2479.730291     2478.606483     2478.509156  0.590303  4.612851  4.896841
   scf:  146     2487.091301     2478.886183     2478.720659  3.066185  4.658460  4.635588
   scf:  147     2485.134334     2478.373925     2478.278638  3.174127  4.629657  4.523880
   scf:  148     2519.697051     2488.535347     2488.421504  5.358024  4.630235 11.100007
   scf:  149     2506.887809     2497.170360     2497.154077  1.680036  4.730142 14.618686
   scf:  150     2494.017519     2495.576335     2495.541024  0.272552  4.615279 13.911583
SCF_NOT_CONV: SCF did not converge in maximum number of steps (required).
SCF_NOT_CONV: SCF did not converge in maximum number of steps (required).
Geom step, scf iteration, dmax:   11   150    1.022474
Geom step, scf iteration, dmax:   11   150    1.022474

timer: Elapsed wall time (sec) =     194.091
timer: CPU execution times (sec):

Routine            Calls   Time/call    Tot.time        %
siesta                 1     729.476     729.476   100.00
Setup                  1       0.181       0.181     0.02
bands                  1       0.000       0.000     0.00
KSV_init               1       0.000       0.000     0.00
IterGeom              11      66.300     729.295    99.98
state_init            11       0.046       0.501     0.07
hsparse               11       0.000       0.003     0.00
overlap               11       0.045       0.493     0.07
Setup_H0              11       0.837       9.204     1.26
naefs                 21       0.000       0.001     0.00
MolMec                21       0.000       0.000     0.00
kinefsm               21       0.025       0.515     0.07
nlefsm                21       0.123       2.591     0.36
DHSCF_Init            11       0.562       6.177     0.85
DHSCF1                11       0.015       0.169     0.02
INITMESH              11       0.000       0.000     0.00
DHSCF2                11       0.546       6.008     0.82
REMESH                11       0.052       0.573     0.08
REORD                961       0.011      10.716     1.47
PHION                 11       0.216       2.371     0.33
COMM_BSC            1647       0.007      12.327     1.69
POISON               415       0.890     369.547    50.66
fft                  830       0.404     335.400    45.98
IterSCF              383       1.861     712.910    97.73
setup_H              394       1.784     702.751    96.34
DHSCF                404       1.755     709.184    97.22
DHSCF3               404       1.749     706.760    96.89
rhoofd               404       0.584     235.806    32.33
XC                   404       0.097      39.233     5.38
GXC-CellXC           404       0.088      35.627     4.88
cellXC               404       0.088      35.611     4.88
vmat                 404       0.024       9.597     1.32
compute_dm           383       0.026       9.971     1.37
diagon               383       0.026       9.904     1.36
r-eigvec             383       0.020       7.678     1.05
r-buildHS            383       0.000       0.011     0.00
rdiag                383       0.020       7.662     1.05
rdiag1               383       0.005       2.102     0.29
rdiag2               383       0.003       0.964     0.13
rdiag3               383       0.011       4.319     0.59
rdiag4               383       0.001       0.245     0.03
r-buildD             383       0.005       2.084     0.29
MIXER                373       0.000       0.055     0.01
PostSCF               10       0.667       6.669     0.91
DHSCF4                10       0.242       2.420     0.33
dfscf                 10       0.201       2.010     0.28
overfsm               10       0.002       0.017     0.00
state_analysis        10       0.000       0.002     0.00
siesta_move           10       0.000       0.004     0.00
  
ABNORMAL_TERMINATION
Stopping Program from Node:    0
ABNORMAL_TERMINATION
Stopping Program from Node:    0
--------------------------------------------------------------------------
MPI_ABORT was invoked on rank 0 in communicator MPI COMMUNICATOR 3 CREATE FROM 0
with errorcode 1.

NOTE: invoking MPI_ABORT causes Open MPI to kill all MPI processes.
You may or may not see output from other processes, depending on
exactly when Open MPI kills them.
--------------------------------------------------------------------------
