Siesta Version  : 4.1.5
Architecture    : unknown
Compiler version: GNU Fortran (GCC) 9.4.0
Compiler flags  : mpifort -march=nocona -mtune=haswell -ftree-vectorize -fPIC -fstack-protectorr-strong -fno-plt -O2 -ffunction-sections -pipe
PP flags        : -DFC_HAVE_ABORT -DCDF -DMPI -DSIESTA__MRRR -DNCDF -DNCDF_4
Libraries       : libncdf.a libfdict.a -lscalapack -llapack -lblas -lnetcdff -lnetcdf -lhdf5_hll -lhdf5 -lz
PARALLEL version
NetCDF support
NetCDF-4 support

* Running in serial mode with MPI
>> Start of run:  17-JUN-2023  12:36:30

                           ***********************       
                           *  WELCOME TO SIESTA  *       
                           ***********************       

reinit: Reading from standard input
reinit: Dumped input in INPUT_TMP.01015
************************** Dump of input data file ****************************
SystemName CO+NH3 reaction             # Descriptive name of the system
SystemLabel            CO+NH3          # Short name for naming files
# Species and atoms
NumberOfSpecies       4
NumberOfAtoms         6
%block ChemicalSpeciesLabel
  1   8   O
  2   6   C
  3   1   H
  4   7   N
%endblock ChemicalSpeciesLabel
# Basis
%block PAO.BasisSizes
    C DZP
    O DZP
    N DZP
    H SZP
%endblock PAO.BasisSizes
LatticeConstant       1.0000 Ang
%block LatticeVectors
15.00000   0.000000  0.000000
 0.00000  15.000000  0.000000
 0.00000   0.000000 15.000000
%endblock LatticeVectors
%block kgrid_Monkhorst_Pack
   1  0  0  0.
   0  1  0  0.
   0  0  1  0.
%endblock Kgrid_Monkhorst_Pack
xc.functional         GGA           # Exchange-correlation functional
xc.authors            PBE           # Exchange-correlation version
#SpinPolarized         true          # Logical parameters are: yes or no
MeshCutoff           200. Ry        # Mesh cutoff. real space mesh
# SCF options
#SCFMustConvergence     true
MaxSCFIterations       150          # Maximum number of SCF iter
DM.MixingWeight       0.02          # New DM amount for next SCF cycle
DM.Tolerance          3.d-4         # Tolerance in maximum difference
                                    # between input and output DM
DM.NumberPulay          6           # to use continuation files
#DM.NumberBroyden       3
#DM.AllowExtrapolation  false
MD.UseSaveData           true
Diag.DivideAndConquer 	true
SolutionMethod        diagon        # OrderN or Diagon
ElectronicTemperature  25 meV       # Temp. for Fermi smearing
# -----------------------------
#  MD options
#  options for a basic MD run
# -----------------------------
# Options to Integrate Equations of motion
MD.TypeOfRun         verlet         # Standard Verlet algrithm
                                    # for Molecular Dynamics
MD.LengthTimeStep         1.0 fs    # time step integration
                                    # Newton eqs of motion
MD.Initial.Time.Step     1          #initial time step of MD
MD.FinalTimeStep         100        #Final time step of MD
# Initial Atomic coordinates and Velocity for MD run
MD.InitialTemperature     0 K       #Assign initial random velocity from
                                    # a Maxwell-Boltzmann distribution
                                    # for a given temperature
MD.UseSaveXV 		true            # use atomic Positions
                                    # and Velocities from
                                    # a saved XV file
AtomicCoordinatesFormat Ang         #Use Angstroms for atomic coordinates
%block AtomicCoordinatesAndAtomicSpecies
        0.000000  0.000000  0.000000  4 ! N 1
        0.000000 -0.937700 -0.381600  3 ! H 2
        0.812100  0.468900 -0.381600  3 ! H 3
       -0.812100  0.468900 -0.381600  3 ! H 4
        0.000000  0.000000  2.000000  2 ! C 5
        0.000000  0.000000  3.128000  1 ! O 6
%endblock AtomicCoordinatesAndAtomicSpecies
#MD Output
WriteCoorXmol          true         #Save the final coordinates in .xyz format
WriteMDXmol            true         #Writes the coordinates
                                    #of all atoms at all steps
                                    #in a .ANI file
                                    #in xyz format
WriteMDhistory         true         #writes .MDE and .MD files
                                    # with output data from MD simulation
                                    # MDE contains: Temp, energy, volume, pressure
                                    # (human readable)
                                    # MD contains coords vel lattice vectors
                                    # (unformatted; post-process with iomd.f)
************************** End of input data file *****************************

reinit: -----------------------------------------------------------------------
reinit: System Name: CO+NH3 reaction
reinit: -----------------------------------------------------------------------
reinit: System Label: CO+NH3
reinit: -----------------------------------------------------------------------

initatom: Reading input for the pseudopotentials and atomic orbitals ----------
Species number:   1 Atomic number:    8 Label: O
Species number:   2 Atomic number:    6 Label: C
Species number:   3 Atomic number:    1 Label: H
Species number:   4 Atomic number:    7 Label: N

Ground state valence configuration:   2s02  2p04
Reading pseudopotential information in formatted form from O.psf

Valence configuration for pseudopotential generation:
2s( 2.00) rc: 1.47
2p( 4.00) rc: 1.47
3d( 0.00) rc: 1.47
4f( 0.00) rc: 1.47
Ground state valence configuration:   2s02  2p02
Reading pseudopotential information in formatted form from C.psf

Valence configuration for pseudopotential generation:
2s( 2.00) rc: 1.54
2p( 2.00) rc: 1.54
3d( 0.00) rc: 1.54
4f( 0.00) rc: 1.54
Ground state valence configuration:   1s01
Reading pseudopotential information in formatted form from H.psf

Valence configuration for pseudopotential generation:
1s( 1.00) rc: 1.31
2p( 0.00) rc: 1.31
3d( 0.00) rc: 0.37
4f( 0.00) rc: 1.31
Ground state valence configuration:   2s02  2p03
Reading pseudopotential information in formatted form from N.psf

Valence configuration for pseudopotential generation:
2s( 2.00) rc: 1.48
2p( 3.00) rc: 1.48
3d( 0.00) rc: 1.48
4f( 0.00) rc: 1.48
resizes: Read basis size for species C = dzp                 
resizes: Read basis size for species O = dzp                 
resizes: Read basis size for species N = dzp                 
resizes: Read basis size for species H = szp                 
For O, standard SIESTA heuristics set lmxkb to 3
 (one more than the basis l, including polarization orbitals).
Use PS.lmax or PS.KBprojectors blocks to override.
For C, standard SIESTA heuristics set lmxkb to 3
 (one more than the basis l, including polarization orbitals).
Use PS.lmax or PS.KBprojectors blocks to override.
For H, standard SIESTA heuristics set lmxkb to 2
 (one more than the basis l, including polarization orbitals).
Use PS.lmax or PS.KBprojectors blocks to override.
For N, standard SIESTA heuristics set lmxkb to 3
 (one more than the basis l, including polarization orbitals).
Use PS.lmax or PS.KBprojectors blocks to override.

<basis_specs>
===============================================================================
O                    Z=   8    Mass=  16.000        Charge= 0.17977+309
Lmxo=1 Lmxkb= 3    BasisType=split      Semic=F
L=0  Nsemic=0  Cnfigmx=2
          i=1  nzeta=2  polorb=0  (2s)
            splnorm:   0.15000    
               vcte:    0.0000    
               rinn:    0.0000    
               qcoe:    0.0000    
               qyuk:    0.0000    
               qwid:   0.10000E-01
                rcs:    0.0000      0.0000    
            lambdas:    1.0000      1.0000    
L=1  Nsemic=0  Cnfigmx=2
          i=1  nzeta=2  polorb=1  (2p)
            splnorm:   0.15000    
               vcte:    0.0000    
               rinn:    0.0000    
               qcoe:    0.0000    
               qyuk:    0.0000    
               qwid:   0.10000E-01
                rcs:    0.0000      0.0000    
            lambdas:    1.0000      1.0000    
-------------------------------------------------------------------------------
L=0  Nkbl=1  erefs: 0.17977+309
L=1  Nkbl=1  erefs: 0.17977+309
L=2  Nkbl=1  erefs: 0.17977+309
L=3  Nkbl=1  erefs: 0.17977+309
===============================================================================
</basis_specs>

atom: Called for O                     (Z =   8)

read_vps: Pseudopotential generation method:
read_vps: ATM3      Troullier-Martins                       
Valence charge for ps generation:    6.00000

read_vps: Pseudopotential includes a core correction:
read_vps: Pseudo-core for xc-correction

xc_check: Exchange-correlation functional:
xc_check: GGA Perdew, Burke & Ernzerhof 1996
V l=0 = -2*Zval/r beyond r=  1.4482
V l=1 = -2*Zval/r beyond r=  1.4482
V l=2 = -2*Zval/r beyond r=  1.4482
V l=3 = -2*Zval/r beyond r=  1.4482
All V_l potentials equal beyond r=  1.4482
This should be close to max(r_c) in ps generation
All pots = -2*Zval/r beyond r=  1.4482

VLOCAL1: 99.0% of the norm of Vloc inside     20.696 Ry
VLOCAL1: 99.9% of the norm of Vloc inside     47.167 Ry
atom: Maximum radius for 4*pi*r*r*local-pseudopot. charge    1.74697
atom: Maximum radius for r*vlocal+2*Zval:    1.52250
GHOST: No ghost state for L =  0
GHOST: No ghost state for L =  1
GHOST: No ghost state for L =  2
GHOST: No ghost state for L =  3

KBgen: Kleinman-Bylander projectors: 
   l= 0   rc=  1.620715   el= -1.757696   Ekb=  4.880948   kbcos=  0.293490
   l= 1   rc=  1.600578   el= -0.664256   Ekb= -6.909822   kbcos= -0.499892
   l= 2   rc=  1.703827   el=  0.002031   Ekb= -1.539219   kbcos= -0.006778
   l= 3   rc=  1.746967   el=  0.003153   Ekb= -0.568983   kbcos= -0.000967

KBgen: Total number of Kleinman-Bylander projectors:   16
atom: -------------------------------------------------------------------------

atom: SANKEY-TYPE ORBITALS:
atom: Selected multiple-zeta basis: split     

SPLIT: Orbitals with angular momentum L= 0

SPLIT: Basis orbitals for state 2s

SPLIT: PAO cut-off radius determined from an
SPLIT: energy shift=  0.020000 Ry

   izeta = 1
                 lambda =    1.000000
                     rc =    3.305093
                 energy =   -1.740009
                kinetic =    1.602198
    potential(screened) =   -3.342207
       potential(ionic) =  -11.287121

   izeta = 2
                 rmatch =    2.510382
              splitnorm =    0.150000
                 energy =   -1.483129
                kinetic =    2.419988
    potential(screened) =   -3.903117
       potential(ionic) =  -12.432204

SPLIT: Orbitals with angular momentum L= 1

SPLIT: Basis orbitals for state 2p

SPLIT: PAO cut-off radius determined from an
SPLIT: energy shift=  0.020000 Ry

   izeta = 1
                 lambda =    1.000000
                     rc =    3.937239
                 energy =   -0.646301
                kinetic =    4.684247
    potential(screened) =   -5.330548
       potential(ionic) =  -13.029785

   izeta = 2
                 rmatch =    2.541963
              splitnorm =    0.150000
                 energy =   -0.369342
                kinetic =    6.896892
    potential(screened) =   -7.266234
       potential(ionic) =  -15.802088

POLgen: Perturbative polarization orbital with L=  2

POLgen: Polarization orbital for state 2p

   izeta = 1
                     rc =    3.937239
                 energy =    2.419602
                kinetic =    4.834162
    potential(screened) =   -2.414561
       potential(ionic) =   -8.756379
atom: Total number of Sankey-type orbitals: 13

atm_pop: Valence configuration (for local Pseudopot. screening):
 2s( 2.00)                                                            
 2p( 4.00)                                                            
Vna: chval, zval:    6.00000   6.00000

Vna:  Cut-off radius for the neutral-atom potential:   3.937239
comcore: Pseudo-core radius Rcore=  1.377587

atom: _________________________________________________________________________

<basis_specs>
===============================================================================
C                    Z=   6    Mass=  12.010        Charge= 0.17977+309
Lmxo=1 Lmxkb= 3    BasisType=split      Semic=F
L=0  Nsemic=0  Cnfigmx=2
          i=1  nzeta=2  polorb=0  (2s)
            splnorm:   0.15000    
               vcte:    0.0000    
               rinn:    0.0000    
               qcoe:    0.0000    
               qyuk:    0.0000    
               qwid:   0.10000E-01
                rcs:    0.0000      0.0000    
            lambdas:    1.0000      1.0000    
L=1  Nsemic=0  Cnfigmx=2
          i=1  nzeta=2  polorb=1  (2p)
            splnorm:   0.15000    
               vcte:    0.0000    
               rinn:    0.0000    
               qcoe:    0.0000    
               qyuk:    0.0000    
               qwid:   0.10000E-01
                rcs:    0.0000      0.0000    
            lambdas:    1.0000      1.0000    
-------------------------------------------------------------------------------
L=0  Nkbl=1  erefs: 0.17977+309
L=1  Nkbl=1  erefs: 0.17977+309
L=2  Nkbl=1  erefs: 0.17977+309
L=3  Nkbl=1  erefs: 0.17977+309
===============================================================================
</basis_specs>

atom: Called for C                     (Z =   6)

read_vps: Pseudopotential generation method:
read_vps: ATM3      Troullier-Martins                       
Valence charge for ps generation:    4.00000

read_vps: Pseudopotential includes a core correction:
read_vps: Pseudo-core for xc-correction

xc_check: Exchange-correlation functional:
xc_check: GGA Perdew, Burke & Ernzerhof 1996
V l=0 = -2*Zval/r beyond r=  1.5227
V l=1 = -2*Zval/r beyond r=  1.5227
V l=2 = -2*Zval/r beyond r=  1.5227
V l=3 = -2*Zval/r beyond r=  1.5038
All V_l potentials equal beyond r=  1.5227
This should be close to max(r_c) in ps generation
All pots = -2*Zval/r beyond r=  1.5227

VLOCAL1: 99.0% of the norm of Vloc inside     18.722 Ry
VLOCAL1: 99.9% of the norm of Vloc inside     42.668 Ry
atom: Maximum radius for 4*pi*r*r*local-pseudopot. charge    1.83678
atom: Maximum radius for r*vlocal+2*Zval:    1.58088
GHOST: No ghost state for L =  0
GHOST: No ghost state for L =  1
GHOST: No ghost state for L =  2
GHOST: No ghost state for L =  3

KBgen: Kleinman-Bylander projectors: 
   l= 0   rc=  1.704034   el= -1.009801   Ekb=  5.335044   kbcos=  0.316824
   l= 1   rc=  1.704034   el= -0.388707   Ekb= -3.785862   kbcos= -0.366464
   l= 2   rc=  1.791422   el=  0.001971   Ekb= -0.970471   kbcos= -0.009212
   l= 3   rc=  1.859892   el=  0.003065   Ekb= -0.399525   kbcos= -0.001223

KBgen: Total number of Kleinman-Bylander projectors:   16
atom: -------------------------------------------------------------------------

atom: SANKEY-TYPE ORBITALS:
atom: Selected multiple-zeta basis: split     

SPLIT: Orbitals with angular momentum L= 0

SPLIT: Basis orbitals for state 2s

SPLIT: PAO cut-off radius determined from an
SPLIT: energy shift=  0.020000 Ry

   izeta = 1
                 lambda =    1.000000
                     rc =    4.088342
                 energy =   -0.989105
                kinetic =    0.904439
    potential(screened) =   -1.893544
       potential(ionic) =   -5.484581

   izeta = 2
                 rmatch =    3.347176
              splitnorm =    0.150000
                 energy =   -0.835603
                kinetic =    1.364067
    potential(screened) =   -2.199670
       potential(ionic) =   -6.017020

SPLIT: Orbitals with angular momentum L= 1

SPLIT: Basis orbitals for state 2p

SPLIT: PAO cut-off radius determined from an
SPLIT: energy shift=  0.020000 Ry

   izeta = 1
                 lambda =    1.000000
                     rc =    4.870301
                 energy =   -0.368906
                kinetic =    2.520369
    potential(screened) =   -2.889275
       potential(ionic) =   -6.370528

   izeta = 2
                 rmatch =    3.475094
              splitnorm =    0.150000
                 energy =   -0.205913
                kinetic =    3.767535
    potential(screened) =   -3.973448
       potential(ionic) =   -7.809680

POLgen: Perturbative polarization orbital with L=  2

POLgen: Polarization orbital for state 2p

   izeta = 1
                     rc =    4.870301
                 energy =    1.296434
                kinetic =    2.645086
    potential(screened) =   -1.348652
       potential(ionic) =   -4.303965
atom: Total number of Sankey-type orbitals: 13

atm_pop: Valence configuration (for local Pseudopot. screening):
 2s( 2.00)                                                            
 2p( 2.00)                                                            
Vna: chval, zval:    4.00000   4.00000

Vna:  Cut-off radius for the neutral-atom potential:   4.870301
comcore: Pseudo-core radius Rcore=  1.791422

atom: _________________________________________________________________________

<basis_specs>
===============================================================================
H                    Z=   1    Mass=  1.0100        Charge= 0.17977+309
Lmxo=0 Lmxkb= 2    BasisType=split      Semic=F
L=0  Nsemic=0  Cnfigmx=1
          i=1  nzeta=1  polorb=1  (1s)
            splnorm:   0.15000    
               vcte:    0.0000    
               rinn:    0.0000    
               qcoe:    0.0000    
               qyuk:    0.0000    
               qwid:   0.10000E-01
                rcs:    0.0000    
            lambdas:    1.0000    
-------------------------------------------------------------------------------
L=0  Nkbl=1  erefs: 0.17977+309
L=1  Nkbl=1  erefs: 0.17977+309
L=2  Nkbl=1  erefs: 0.17977+309
===============================================================================
</basis_specs>

atom: Called for H                     (Z =   1)

read_vps: Pseudopotential generation method:
read_vps: ATM3      Troullier-Martins                       
Valence charge for ps generation:    1.00000

xc_check: Exchange-correlation functional:
xc_check: GGA Perdew, Burke & Ernzerhof 1996
V l=0 = -2*Zval/r beyond r=  1.2977
V l=1 = -2*Zval/r beyond r=  1.2815
V l=2 = -2*Zval/r beyond r=  1.2656
All V_l potentials equal beyond r=  1.2977
This should be close to max(r_c) in ps generation
All pots = -2*Zval/r beyond r=  1.2977

VLOCAL1: 99.0% of the norm of Vloc inside     25.776 Ry
VLOCAL1: 99.9% of the norm of Vloc inside     58.745 Ry
atom: Maximum radius for 4*pi*r*r*local-pseudopot. charge    1.52711
atom: Maximum radius for r*vlocal+2*Zval:    1.28155
GHOST: No ghost state for L =  0
GHOST: No ghost state for L =  1
GHOST: No ghost state for L =  2

KBgen: Kleinman-Bylander projectors: 
   l= 0   rc=  1.434438   el= -0.477200   Ekb= -1.957043   kbcos= -0.361614
   l= 1   rc=  1.508111   el=  0.001076   Ekb= -0.424224   kbcos= -0.025441
   l= 2   rc=  1.527112   el=  0.002010   Ekb= -0.378578   kbcos= -0.002010

KBgen: Total number of Kleinman-Bylander projectors:    9
atom: -------------------------------------------------------------------------

atom: SANKEY-TYPE ORBITALS:

SPLIT: Orbitals with angular momentum L= 0

SPLIT: Basis orbitals for state 1s

SPLIT: PAO cut-off radius determined from an
SPLIT: energy shift=  0.020000 Ry

   izeta = 1
                 lambda =    1.000000
                     rc =    4.708991
                 energy =   -0.457754
                kinetic =    0.977134
    potential(screened) =   -1.434888
       potential(ionic) =   -1.963073

POLgen: Perturbative polarization orbital with L=  1

POLgen: Polarization orbital for state 1s

   izeta = 1
                     rc =    4.708991
                 energy =    0.764959
                kinetic =    1.478379
    potential(screened) =   -0.713420
       potential(ionic) =   -1.205754
atom: Total number of Sankey-type orbitals:  4

atm_pop: Valence configuration (for local Pseudopot. screening):
 1s( 1.00)                                                            
Vna: chval, zval:    1.00000   1.00000

Vna:  Cut-off radius for the neutral-atom potential:   4.708991

atom: _________________________________________________________________________

<basis_specs>
===============================================================================
N                    Z=   7    Mass=  14.010        Charge= 0.17977+309
Lmxo=1 Lmxkb= 3    BasisType=split      Semic=F
L=0  Nsemic=0  Cnfigmx=2
          i=1  nzeta=2  polorb=0  (2s)
            splnorm:   0.15000    
               vcte:    0.0000    
               rinn:    0.0000    
               qcoe:    0.0000    
               qyuk:    0.0000    
               qwid:   0.10000E-01
                rcs:    0.0000      0.0000    
            lambdas:    1.0000      1.0000    
L=1  Nsemic=0  Cnfigmx=2
          i=1  nzeta=2  polorb=1  (2p)
            splnorm:   0.15000    
               vcte:    0.0000    
               rinn:    0.0000    
               qcoe:    0.0000    
               qyuk:    0.0000    
               qwid:   0.10000E-01
                rcs:    0.0000      0.0000    
            lambdas:    1.0000      1.0000    
-------------------------------------------------------------------------------
L=0  Nkbl=1  erefs: 0.17977+309
L=1  Nkbl=1  erefs: 0.17977+309
L=2  Nkbl=1  erefs: 0.17977+309
L=3  Nkbl=1  erefs: 0.17977+309
===============================================================================
</basis_specs>

atom: Called for N                     (Z =   7)

read_vps: Pseudopotential generation method:
read_vps: ATM3      Troullier-Martins                       
Valence charge for ps generation:    5.00000

read_vps: Pseudopotential includes a core correction:
read_vps: Pseudo-core for xc-correction

xc_check: Exchange-correlation functional:
xc_check: GGA Perdew, Burke & Ernzerhof 1996
V l=0 = -2*Zval/r beyond r=  1.4606
V l=1 = -2*Zval/r beyond r=  1.4606
V l=2 = -2*Zval/r beyond r=  1.4606
V l=3 = -2*Zval/r beyond r=  1.4606
All V_l potentials equal beyond r=  1.4606
This should be close to max(r_c) in ps generation
All pots = -2*Zval/r beyond r=  1.4606

VLOCAL1: 99.0% of the norm of Vloc inside     20.347 Ry
VLOCAL1: 99.9% of the norm of Vloc inside     46.372 Ry
atom: Maximum radius for 4*pi*r*r*local-pseudopot. charge    1.76189
atom: Maximum radius for r*vlocal+2*Zval:    1.53550
GHOST: No ghost state for L =  0
GHOST: No ghost state for L =  1
GHOST: No ghost state for L =  2
GHOST: No ghost state for L =  3

KBgen: Kleinman-Bylander projectors: 
   l= 0   rc=  1.634559   el= -1.363963   Ekb=  5.296955   kbcos=  0.335621
   l= 1   rc=  1.614250   el= -0.521451   Ekb= -5.259161   kbcos= -0.433408
   l= 2   rc=  1.718383   el=  0.001991   Ekb= -1.271464   kbcos= -0.007566
   l= 3   rc=  1.761893   el=  0.003093   Ekb= -0.494769   kbcos= -0.001015

KBgen: Total number of Kleinman-Bylander projectors:   16
atom: -------------------------------------------------------------------------

atom: SANKEY-TYPE ORBITALS:
atom: Selected multiple-zeta basis: split     

SPLIT: Orbitals with angular momentum L= 0

SPLIT: Basis orbitals for state 2s

SPLIT: PAO cut-off radius determined from an
SPLIT: energy shift=  0.020000 Ry

   izeta = 1
                 lambda =    1.000000
                     rc =    3.683980
                 energy =   -1.346493
                kinetic =    1.217702
    potential(screened) =   -2.564196
       potential(ionic) =   -8.121417

   izeta = 2
                 rmatch =    2.869008
              splitnorm =    0.150000
                 energy =   -1.143688
                kinetic =    1.842239
    potential(screened) =   -2.985927
       potential(ionic) =   -8.929748

SPLIT: Orbitals with angular momentum L= 1

SPLIT: Basis orbitals for state 2p

SPLIT: PAO cut-off radius determined from an
SPLIT: energy shift=  0.020000 Ry

   izeta = 1
                 lambda =    1.000000
                     rc =    4.280232
                 energy =   -0.501066
                kinetic =    3.581781
    potential(screened) =   -4.082847
       potential(ionic) =   -9.491389

   izeta = 2
                 rmatch =    2.905100
              splitnorm =    0.150000
                 energy =   -0.269325
                kinetic =    5.375034
    potential(screened) =   -5.644358
       potential(ionic) =  -11.640447

POLgen: Perturbative polarization orbital with L=  2

POLgen: Polarization orbital for state 2p

   izeta = 1
                     rc =    4.280232
                 energy =    1.846098
                kinetic =    3.706851
    potential(screened) =   -1.860753
       potential(ionic) =   -6.377604
atom: Total number of Sankey-type orbitals: 13

atm_pop: Valence configuration (for local Pseudopot. screening):
 2s( 2.00)                                                            
 2p( 3.00)                                                            
Vna: chval, zval:    5.00000   5.00000

Vna:  Cut-off radius for the neutral-atom potential:   4.280232
comcore: Pseudo-core radius Rcore=  1.554824

atom: _________________________________________________________________________

prinput: Basis input ----------------------------------------------------------

PAO.BasisType split     

%block ChemicalSpeciesLabel
    1    8 O                       # Species index, atomic number, species label
    2    6 C                       # Species index, atomic number, species label
    3    1 H                       # Species index, atomic number, species label
    4    7 N                       # Species index, atomic number, species label
%endblock ChemicalSpeciesLabel

%block PAO.Basis                 # Define Basis set
O                     2                    # Species label, number of l-shells
 n=2   0   2                         # n, l, Nzeta 
   3.305      2.510   
   1.000      1.000   
 n=2   1   2 P   1                   # n, l, Nzeta, Polarization, NzetaPol
   3.937      2.542   
   1.000      1.000   
C                     2                    # Species label, number of l-shells
 n=2   0   2                         # n, l, Nzeta 
   4.088      3.347   
   1.000      1.000   
 n=2   1   2 P   1                   # n, l, Nzeta, Polarization, NzetaPol
   4.870      3.475   
   1.000      1.000   
H                     1                    # Species label, number of l-shells
 n=1   0   1 P   1                   # n, l, Nzeta, Polarization, NzetaPol
   4.709   
   1.000   
N                     2                    # Species label, number of l-shells
 n=2   0   2                         # n, l, Nzeta 
   3.684      2.869   
   1.000      1.000   
 n=2   1   2 P   1                   # n, l, Nzeta, Polarization, NzetaPol
   4.280      2.905   
   1.000      1.000   
%endblock PAO.Basis

prinput: ----------------------------------------------------------------------

Dumping basis to NetCDF file O.ion.nc
Dumping basis to NetCDF file C.ion.nc
Dumping basis to NetCDF file H.ion.nc
Dumping basis to NetCDF file N.ion.nc
coor:   Atomic-coordinates input format  =     Cartesian coordinates
coor:                                          (in Angstroms)

ioxv: Reading coordinates and velocities from file
! Info in XV file prevails over previous structure input
WARNING: CO+NH3.VERLET_RESTART not found--reading only XV file and moving back 1 time step using Euler

siesta: Atomic coordinates (Bohr) and species
siesta:      0.00000   0.00000   0.00000  4        1
siesta:      0.00000  -1.77200  -0.72000  3        2
siesta:      1.53000   0.46890  -0.72000  3        3
siesta:     -1.53000   0.88600  -0.72000  3        4
siesta:      4.50000  -0.70000  -0.72000  2        5
siesta:      5.70000  -0.70000  -0.72000  1        6

siesta: System type = molecule  

initatomlists: Number of atoms, orbitals, and projectors:      6    51    75

coxmol: Writing XMOL coordinates into file CO+NH3.xyz                                                          

siesta: ******************** Simulation parameters ****************************
siesta:
siesta: The following are some of the parameters of the simulation.
siesta: A complete list of the parameters used, including default values,
siesta: can be found in file out.fdf
siesta:
redata: Spin configuration                          = none
redata: Number of spin components                   = 1
redata: Time-Reversal Symmetry                      = T
redata: Spin spiral                                 = F
redata: Long output                                 =   F
redata: Number of Atomic Species                    =        4
redata: Charge density info will appear in .RHO file
redata: Write Mulliken Pop.                         = NO
redata: Matel table size (NRTAB)                    =     1024
redata: Mesh Cutoff                                 =   200.0000 Ry
redata: Net charge of the system                    =     0.0000 |e|
redata: Min. number of SCF Iter                     =        0
redata: Max. number of SCF Iter                     =      150
redata: SCF convergence failure will abort job
redata: SCF mix quantity                            = Hamiltonian
redata: Mix DM or H after convergence               =   F
redata: Recompute H after scf cycle                 =   F
redata: Mix DM in first SCF step                    =   T
redata: Write Pulay info on disk                    =   F
redata: New DM Occupancy tolerance                  = 0.000000000001
redata: No kicks to SCF
redata: DM Mixing Weight for Kicks                  =     0.5000
redata: Require Harris convergence for SCF          =   F
redata: Harris energy tolerance for SCF             =     0.000100 eV
redata: Require DM convergence for SCF              =   T
redata: DM tolerance for SCF                        =     0.000300
redata: Require EDM convergence for SCF             =   F
redata: EDM tolerance for SCF                       =     0.001000 eV
redata: Require H convergence for SCF               =   T
redata: Hamiltonian tolerance for SCF               =     0.001000 eV
redata: Require (free) Energy convergence for SCF   =   F
redata: (free) Energy tolerance for SCF             =     0.000100 eV
redata: Using Saved Data (generic)                  =   F
redata: Use continuation files for DM               =   F
redata: Neglect nonoverlap interactions             =   F
redata: Method of Calculation                       = Diagonalization
redata: Electronic Temperature                      =   290.1109 K
redata: Fix the spin of the system                  =   F
redata: Dynamics option                             = Verlet MD run
redata: Initial MD time step                        =        1
redata:   Final MD time step                        =      100
redata: Length of MD time step                      =     1.0000 fs
redata: Initial Temperature of MD run               =     0.0000 K
redata: Perform a MD quench                         =   F
mix.SCF: Pulay mixing                            = Pulay
mix.SCF:    Variant                              = stable
mix.SCF:    History steps                        = 6
mix.SCF:    Linear mixing weight                 =     0.020000
mix.SCF:    Mixing weight                        =     0.020000
mix.SCF:    SVD condition                        = 0.1000E-07
redata: Save all siesta data in one NC              =   F
redata: ***********************************************************************

%block SCF.Mixers
  Pulay
%endblock SCF.Mixers

%block SCF.Mixer.Pulay
  # Mixing method
  method pulay
  variant stable

  # Mixing options
  weight 0.0200
  weight.linear 0.0200
  history 6
%endblock SCF.Mixer.Pulay

Size of DM history Fstack: 1
Total number of electrons:    18.000000
Total ionic charge:    18.000000

* ProcessorY, Blocksize:    1  24


* Orbital distribution balance (max,min):    51    51

 Kpoints in:            1 . Kpoints trimmed:            1

siesta: k-grid: Number of k-points =     1
siesta: k-grid: Cutoff (effective) =     7.938 Ang
siesta: k-grid: Supercell and displacements
siesta: k-grid:    1   0   0      0.000
siesta: k-grid:    0   1   0      0.000
siesta: k-grid:    0   0   1      0.000

diag: Algorithm                                     = D&C
diag: Parallel over k                               =   F
diag: Use parallel 2D distribution                  =   F
diag: Parallel block-size                           = 24
diag: Parallel distribution                         =     1 x     1
diag: Used triangular part                          = Lower
diag: Absolute tolerance                            =  0.100E-15
diag: Orthogonalization factor                      =  0.100E-05
diag: Memory factor                                 =  1.0000


ts: **************************************************************
ts: Save H and S matrices                           =    F
ts: Save DM and EDM matrices                        =    F
ts: Only save the overlap matrix S                  =    F
ts: **************************************************************

************************ Begin: TS CHECKS AND WARNINGS ************************
************************ End: TS CHECKS AND WARNINGS **************************


                     ====================================
                        Begin MD step =      1
                     ====================================

outcell: Unit cell vectors (Ang):
       15.875310    0.000000    0.000000
        0.000000   15.875310    0.000000
        0.000000    0.000000   15.875310

outcell: Cell vector modules (Ang)   :   15.875310   15.875310   15.875310
outcell: Cell angles (23,13,12) (deg):     90.0000     90.0000     90.0000
outcell: Cell volume (Ang**3)        :   4000.9824
<dSpData1D:S at geom step 1
  <sparsity:sparsity for geom step 1
    nrows_g=51 nrows=51 sparsity=1.0000 nnzs=2601, refcount: 7>
  <dData1D:(new from dSpData1D) n=2601, refcount: 1>
refcount: 1>
new_DM -- step:     1
Initializing Density Matrix...
DM filled with atomic data:
<dSpData2D:DM initialized from atoms
  <sparsity:sparsity for geom step 1
    nrows_g=51 nrows=51 sparsity=1.0000 nnzs=2601, refcount: 8>
  <dData2D:DM n=2601 m=1, refcount: 1>
refcount: 1>
No. of atoms with KB's overlaping orbs in proc 0. Max # of overlaps:       6      51
New grid distribution:   1
           1       1:   72    1:   72    1:   72

InitMesh: MESH =   144 x   144 x   144 =     2985984
InitMesh: (bp) =    72 x    72 x    72 =      373248
InitMesh: Mesh cutoff (required, used) =   200.000   227.396 Ry
ExtMesh (bp) on 0 =   120 x   120 x   120 =     1728000
PhiOnMesh: Number of (b)points on node 0 =               373248
PhiOnMesh: nlist on node 0 =               243123

stepf: Fermi-Dirac step function

siesta: Program's energy decomposition (eV):
siesta: Ebs     =      -204.717483
siesta: Eions   =      1332.829847
siesta: Ena     =       253.293917
siesta: Ekin    =       816.067689
siesta: Enl     =      -223.700203
siesta: Eso     =         0.000000
siesta: Edftu   =         0.000000
siesta: DEna    =       -87.789496
siesta: DUscf   =        14.078663
siesta: DUext   =         0.000000
siesta: Exc     =      -308.624819
siesta: eta*DQ  =         0.000000
siesta: Emadel  =         0.000000
siesta: Emeta   =         0.000000
siesta: Emolmec =         0.000000
siesta: Ekinion =         0.000000
siesta: Eharris =      -872.087676
siesta: Etot    =      -869.504096
siesta: FreeEng =      -869.504096

        iscf     Eharris(eV)        E_KS(eV)     FreeEng(eV)     dDmax    Ef(eV) dHmax(eV)
   scf:    1     -872.087676     -869.504096     -869.504096  1.573183 -2.705995 12.941691
timer: Routine,Calls,Time,% = IterSCF        1       3.932  20.76
   scf:    2     -870.043772     -869.775323     -869.775323  0.011732 -2.422621 12.550737
   scf:    3     -873.925596     -873.029585     -873.029585  0.323227  0.322226  2.812068
   scf:    4     -871.003114     -872.462387     -872.462387  0.151369  2.137458  6.017574
   scf:    5     -873.142880     -873.227039     -873.227039  0.231764 -2.374376  2.077581
   scf:    6     -873.266195     -873.270625     -873.270625  0.034994 -1.948657  2.802918
   scf:    7     -873.436899     -873.379539     -873.379539  0.093988 -3.742305  0.255212
   scf:    8     -873.378523     -873.379049     -873.379049  0.002477 -3.787456  0.326769
   scf:    9     -873.381195     -873.380327     -873.380327  0.006793 -3.646417  0.047362
   scf:   10     -873.380350     -873.380351     -873.380351  0.002020 -3.607667  0.028271
   scf:   11     -873.380380     -873.380368     -873.380368  0.000500 -3.615859  0.009682
   scf:   12     -873.380371     -873.380370     -873.380370  0.000278 -3.621434  0.000983

SCF Convergence by DM+H criterion
max |DM_out - DM_in|         :     0.0002779664
max |H_out - H_in|      (eV) :     0.0009832210
SCF cycle converged after 12 iterations

Using DM_out to compute the final energy and forces
No. of atoms with KB's overlaping orbs in proc 0. Max # of overlaps:       6      51

siesta: E_KS(eV) =             -873.3804

siesta: E_KS - E_eggbox =      -873.3804

siesta: Atomic forces (eV/Ang):
----------------------------------------
   Tot   -0.040062   -0.062600   -0.023664
----------------------------------------
   Max  435.450902
   Res  144.843883    sqrt( Sum f_i^2 / 3N )
----------------------------------------
   Max  435.450902    constrained

Stress tensor Voigt[x,y,z,yz,xz,xy] (kbar):     -195.74       -0.94       -0.37        0.21        0.77       -0.15
(Free)E + p*V (eV/cell)     -709.3571
Target enthalpy (eV/cell)     -873.3804

siesta: Stress tensor (static) (eV/Ang**3):
        -0.071375   -0.000096    0.000478
        -0.000096   -0.000589    0.000132
         0.000478    0.000132   -0.000228

siesta: Pressure (static):         38.55518828  kBar

siesta: Stress tensor (total) (eV/Ang**3):
        -0.122170   -0.000096    0.000478
        -0.000096   -0.000589    0.000132
         0.000478    0.000132   -0.000228

siesta: Pressure (total):         65.68314167  kBar

siesta: Temp_ion =  158374.690 K

                     ====================================
                        Begin MD step =      2
                     ====================================

outcell: Unit cell vectors (Ang):
       15.875310    0.000000    0.000000
        0.000000   15.875310    0.000000
        0.000000    0.000000   15.875310

outcell: Cell vector modules (Ang)   :   15.875310   15.875310   15.875310
outcell: Cell angles (23,13,12) (deg):     90.0000     90.0000     90.0000
outcell: Cell volume (Ang**3)        :   4000.9824
<dSpData1D:S at geom step 2
  <sparsity:sparsity for geom step 2
    nrows_g=51 nrows=51 sparsity=1.0000 nnzs=2601, refcount: 7>
  <dData1D:(new from dSpData1D) n=2601, refcount: 1>
refcount: 1>
new_DM -- step:     2
Re-using DM from previous geometries...
Number of DMs in history: 1
 DM extrapolation coefficients: 
1   1.00000
New DM after history re-use:
<dSpData2D:SpM extrapolated using coords
  <sparsity:sparsity for geom step 2
    nrows_g=51 nrows=51 sparsity=1.0000 nnzs=2601, refcount: 9>
  <dData2D:(temp array for extrapolation) n=2601 m=1, refcount: 1>
refcount: 1>
Note: For starting DM, Qtot, Tr[D*S] =         18.00000000         18.44129727
No. of atoms with KB's overlaping orbs in proc 0. Max # of overlaps:       6      51
New grid distribution:   1
           1       1:   72    1:   72    1:   72

InitMesh: MESH =   144 x   144 x   144 =     2985984
InitMesh: (bp) =    72 x    72 x    72 =      373248
InitMesh: Mesh cutoff (required, used) =   200.000   227.396 Ry
ExtMesh (bp) on 0 =   120 x   120 x   120 =     1728000
PhiOnMesh: Number of (b)points on node 0 =               373248
PhiOnMesh: nlist on node 0 =               242847

        iscf     Eharris(eV)        E_KS(eV)     FreeEng(eV)     dDmax    Ef(eV) dHmax(eV)
   scf:    1     -909.957509     -921.229281     -921.229281  0.768082 -0.813649 14.405567
   scf:    2     -768.604332     -876.041080     -876.041080  1.157642 -2.954516 31.425274
   scf:    3     -931.064883     -926.601853     -926.601853  1.049845  0.714932  6.235017
   scf:    4     -927.153886     -927.177671     -927.177671  0.125720 -1.301454  3.513882
   scf:    5     -925.747693     -926.510905     -926.510905  0.098837  0.072339  6.599297
   scf:    6     -927.832517     -927.482720     -927.482720  0.206058 -2.886498  0.553275
   scf:    7     -927.480866     -927.481926     -927.481926  0.002858 -2.880934  0.616148
   scf:    8     -927.502482     -927.497608     -927.497608  0.014645 -2.719067  0.242561
   scf:    9     -927.492884     -927.496350     -927.496350  0.011363 -2.903117  0.267637
   scf:   10     -927.499218     -927.498256     -927.498256  0.004629 -2.842770  0.107096
   scf:   11     -927.498403     -927.498389     -927.498389  0.003399 -2.787689  0.036620
   scf:   12     -927.498451     -927.498425     -927.498425  0.001260 -2.801317  0.002799
   scf:   13     -927.498425     -927.498425     -927.498425  0.000011 -2.801219  0.002501
   scf:   14     -927.498427     -927.498426     -927.498426  0.000146 -2.801590  0.001591
   scf:   15     -927.498426     -927.498426     -927.498426  0.000005 -2.801602  0.001508
   scf:   16     -927.498426     -927.498426     -927.498426  0.000051 -2.801690  0.001307
   scf:   17     -927.498426     -927.498426     -927.498426  0.000019 -2.801680  0.001184
   scf:   18     -927.498426     -927.498426     -927.498426  0.000021 -2.801526  0.001071
   scf:   19     -927.498426     -927.498426     -927.498426  0.000009 -2.801404  0.001085
   scf:   20     -927.498426     -927.498426     -927.498426  0.000041 -2.801233  0.000732

SCF Convergence by DM+H criterion
max |DM_out - DM_in|         :     0.0000408344
max |H_out - H_in|      (eV) :     0.0007320965
SCF cycle converged after 20 iterations

Using DM_out to compute the final energy and forces
No. of atoms with KB's overlaping orbs in proc 0. Max # of overlaps:       6      51

siesta: E_KS(eV) =             -927.4984

siesta: Atomic forces (eV/Ang):
----------------------------------------
   Tot    0.014728   -0.092361   -0.032441
----------------------------------------
   Max   49.327041
   Res   15.165405    sqrt( Sum f_i^2 / 3N )
----------------------------------------
   Max   49.327041    constrained

Stress tensor Voigt[x,y,z,yz,xz,xy] (kbar):     -107.67       -1.22       -0.36       -0.05        1.16        1.51
(Free)E + p*V (eV/cell)     -836.5685
Target enthalpy (eV/cell)     -927.4984

siesta: Stress tensor (static) (eV/Ang**3):
        -0.016403    0.000943    0.000726
         0.000943   -0.000760   -0.000034
         0.000726   -0.000034   -0.000222

siesta: Pressure (static):          9.28495182  kBar

siesta: Stress tensor (total) (eV/Ang**3):
        -0.067199    0.000943    0.000726
         0.000943   -0.000760   -0.000034
         0.000726   -0.000034   -0.000222

siesta: Pressure (total):         36.41290521  kBar

siesta: Temp_ion =  218113.920 K

                     ====================================
                        Begin MD step =      3
                     ====================================

outcell: Unit cell vectors (Ang):
       15.875310    0.000000    0.000000
        0.000000   15.875310    0.000000
        0.000000    0.000000   15.875310

outcell: Cell vector modules (Ang)   :   15.875310   15.875310   15.875310
outcell: Cell angles (23,13,12) (deg):     90.0000     90.0000     90.0000
outcell: Cell volume (Ang**3)        :   4000.9824
<dSpData1D:S at geom step 3
  <sparsity:sparsity for geom step 3
    nrows_g=51 nrows=51 sparsity=1.0000 nnzs=2601, refcount: 7>
  <dData1D:(new from dSpData1D) n=2601, refcount: 1>
refcount: 1>
new_DM -- step:     3
Re-using DM from previous geometries...
Number of DMs in history: 1
 DM extrapolation coefficients: 
1   1.00000
New DM after history re-use:
<dSpData2D:SpM extrapolated using coords
  <sparsity:sparsity for geom step 3
    nrows_g=51 nrows=51 sparsity=1.0000 nnzs=2601, refcount: 9>
  <dData2D:(temp array for extrapolation) n=2601 m=1, refcount: 1>
refcount: 1>
Note: For starting DM, Qtot, Tr[D*S] =         18.00000000         17.15894419
No. of atoms with KB's overlaping orbs in proc 0. Max # of overlaps:       6      51
New grid distribution:   1
           1       1:   72    1:   72    1:   72

InitMesh: MESH =   144 x   144 x   144 =     2985984
InitMesh: (bp) =    72 x    72 x    72 =      373248
InitMesh: Mesh cutoff (required, used) =   200.000   227.396 Ry
ExtMesh (bp) on 0 =   120 x   120 x   120 =     1728000
PhiOnMesh: Number of (b)points on node 0 =               373248
PhiOnMesh: nlist on node 0 =               243040

        iscf     Eharris(eV)        E_KS(eV)     FreeEng(eV)     dDmax    Ef(eV) dHmax(eV)
   scf:    1     -844.465629     -899.221573     -899.221573  1.359728 -2.338294 23.462327
   scf:    2      312.580190     -535.386229     -535.386280  1.973602 -1.037787101.906419
   scf:    3    -1017.014012     -921.494634     -921.494642  1.925860 -2.373239  5.668705
   scf:    4     -923.541399     -922.663784     -922.664025  0.133153 -2.396294  3.125350
   scf:    5     -923.117061     -922.899521     -922.899929  0.039558 -2.400343  2.594496
   scf:    6     -924.050464     -923.657435     -923.658878  0.163357 -2.417555  1.765020
   scf:    7     -916.025452     -921.536380     -921.536475  0.457768 -2.477892  5.895149
   scf:    8     -920.843948     -921.197551     -921.197598  0.027355 -2.481521  6.472602
   scf:    9     -923.014917     -922.173731     -922.174137  0.087610 -2.463738  4.797952
   scf:   10     -923.386058     -922.861949     -922.862077  0.132699 -2.505457  3.258777
   scf:   11     -922.493526     -923.530703     -923.530716  0.346066 -2.566870  3.365635
   scf:   12     -921.432535     -922.791156     -922.791162  0.211108 -2.579923  3.919740
   scf:   13     -923.903073     -923.858204     -923.858997  0.275543 -2.556988  1.246897
   scf:   14     -923.897659     -923.879366     -923.880614  0.007453 -2.569712  0.943050
   scf:   15     -923.564143     -923.769447     -923.769936  0.086533 -2.590262  1.732834
   scf:   16     -923.906160     -923.848639     -923.849539  0.039869 -2.590868  1.315280
   scf:   17     -923.649723     -923.784130     -923.795748  0.058662 -2.637077  1.124243
   scf:   18     -923.828960     -923.895749     -923.909488  0.121638 -2.632699  0.273383
   scf:   19     -923.574503     -923.809534     -923.819307  0.110964 -2.632975  1.004994
   scf:   20     -923.927524     -923.900226     -923.913442  0.072714 -2.632983  0.188048
   scf:   21     -923.886787     -923.894531     -923.906095  0.013322 -2.635467  0.337914
   scf:   22     -923.905054     -923.903153     -923.915918  0.024117 -2.629621  0.074455
   scf:   23     -923.902324     -923.902791     -923.916330  0.002878 -2.630716  0.042996
   scf:   24     -923.900315     -923.901726     -923.916494  0.004391 -2.632684  0.059068
   scf:   25     -923.902221     -923.902023     -923.916609  0.002442 -2.632677  0.030604
   scf:   26     -923.896711     -923.899506     -923.916837  0.007062 -2.641328  0.033784
   scf:   27     -923.902106     -923.900860     -923.916929  0.003079 -2.639088  0.012841
   scf:   28     -923.900410     -923.900636     -923.916937  0.000521 -2.639442  0.009636
   scf:   29     -923.900271     -923.900456     -923.916944  0.000915 -2.639294  0.012250
   scf:   30     -923.900512     -923.900484     -923.916943  0.000183 -2.639350  0.011465
   scf:   31     -923.900628     -923.900556     -923.916942  0.000245 -2.639555  0.009515
   scf:   32     -923.900359     -923.900460     -923.916963  0.000801 -2.641668  0.002848
   scf:   33     -923.900509     -923.900485     -923.916964  0.000067 -2.641712  0.002639
   scf:   34     -923.900665     -923.900575     -923.916965  0.000205 -2.641775  0.003378
   scf:   35     -923.900541     -923.900558     -923.916966  0.000257 -2.642293  0.002058
   scf:   36     -923.900512     -923.900535     -923.916967  0.000055 -2.642434  0.001983
   scf:   37     -923.900496     -923.900515     -923.916967  0.000084 -2.642650  0.001734
   scf:   38     -923.900512     -923.900514     -923.916967  0.000035 -2.642869  0.001498
   scf:   39     -923.900481     -923.900497     -923.916967  0.000045 -2.643040  0.001276
   scf:   40     -923.900507     -923.900502     -923.916967  0.000026 -2.643140  0.001044
   scf:   41     -923.900505     -923.900504     -923.916967  0.000012 -2.643162  0.001033
   scf:   42     -923.900485     -923.900494     -923.916967  0.000079 -2.643340  0.000800

SCF Convergence by DM+H criterion
max |DM_out - DM_in|         :     0.0000787575
max |H_out - H_in|      (eV) :     0.0007997656
SCF cycle converged after 42 iterations

Using DM_out to compute the final energy and forces
No. of atoms with KB's overlaping orbs in proc 0. Max # of overlaps:       6      51

siesta: E_KS(eV) =             -923.9005

siesta: Atomic forces (eV/Ang):
----------------------------------------
   Tot    0.116954   -0.091410   -0.023208
----------------------------------------
   Max   29.301874
   Res    9.719582    sqrt( Sum f_i^2 / 3N )
----------------------------------------
   Max   29.301874    constrained

Stress tensor Voigt[x,y,z,yz,xz,xy] (kbar):     -121.07       -4.39       -0.84       -0.02        1.80        4.39
(Free)E + p*V (eV/cell)     -818.7809
Target enthalpy (eV/cell)     -923.9170

siesta: Stress tensor (static) (eV/Ang**3):
        -0.005641    0.002949    0.001182
         0.002949   -0.002719   -0.000025
         0.001182   -0.000025   -0.000517

siesta: Pressure (static):          4.74107941  kBar

siesta: Stress tensor (total) (eV/Ang**3):
        -0.075565    0.002741    0.001120
         0.002741   -0.002741   -0.000014
         0.001120   -0.000014   -0.000526

siesta: Pressure (total):         42.10174774  kBar

siesta: Temp_ion =  219402.059 K

                     ====================================
                        Begin MD step =      4
                     ====================================

outcell: Unit cell vectors (Ang):
       15.875310    0.000000    0.000000
        0.000000   15.875310    0.000000
        0.000000    0.000000   15.875310

outcell: Cell vector modules (Ang)   :   15.875310   15.875310   15.875310
outcell: Cell angles (23,13,12) (deg):     90.0000     90.0000     90.0000
outcell: Cell volume (Ang**3)        :   4000.9824
<dSpData1D:S at geom step 4
  <sparsity:sparsity for geom step 4
    nrows_g=51 nrows=51 sparsity=1.0000 nnzs=2601, refcount: 7>
  <dData1D:(new from dSpData1D) n=2601, refcount: 1>
refcount: 1>
new_DM -- step:     4
Re-using DM from previous geometries...
Number of DMs in history: 1
 DM extrapolation coefficients: 
1   1.00000
New DM after history re-use:
<dSpData2D:SpM extrapolated using coords
  <sparsity:sparsity for geom step 4
    nrows_g=51 nrows=51 sparsity=1.0000 nnzs=2601, refcount: 9>
  <dData2D:(temp array for extrapolation) n=2601 m=1, refcount: 1>
refcount: 1>
Note: For starting DM, Qtot, Tr[D*S] =         18.00000000         17.21645960
No. of atoms with KB's overlaping orbs in proc 0. Max # of overlaps:       6      51
New grid distribution:   1
           1       1:   72    1:   72    1:   72

InitMesh: MESH =   144 x   144 x   144 =     2985984
InitMesh: (bp) =    72 x    72 x    72 =      373248
InitMesh: Mesh cutoff (required, used) =   200.000   227.396 Ry
ExtMesh (bp) on 0 =   120 x   120 x   120 =     1728000
PhiOnMesh: Number of (b)points on node 0 =               373248
PhiOnMesh: nlist on node 0 =               242849

        iscf     Eharris(eV)        E_KS(eV)     FreeEng(eV)     dDmax    Ef(eV) dHmax(eV)
   scf:    1     -869.326670     -903.091930     -903.096271  0.708476 -3.502315 20.194204
   scf:    2      158.068714     -581.748668     -581.748668  1.989791 -0.990432103.654463
   scf:    3     -995.951882     -915.751590     -915.751677  2.138031 -2.880684  7.536018
   scf:    4     -913.660907     -914.748424     -914.748536  0.064163 -2.803979  9.168315
   scf:    5     -917.804654     -916.373576     -916.373791  0.073034 -2.846710  6.874204
   scf:    6     -918.827069     -918.658952     -918.681744  0.465853 -2.664885  1.510379
   scf:    7     -918.461221     -918.566270     -918.587209  0.047715 -2.639207  1.661336
   scf:    8     -918.387761     -918.506754     -918.519798  0.031440 -2.674496  1.484528
   scf:    9     -914.957562     -917.961475     -917.977260  0.550941 -2.725646  2.663469
   scf:   10     -919.011949     -918.568675     -918.623204  0.126606 -2.666142  1.376121
   scf:   11     -918.760917     -918.950078     -919.004822  0.404329 -2.682625  0.328225
   scf:   12     -918.649006     -918.892766     -918.955980  0.166804 -2.680958  0.611529
   scf:   13     -917.266065     -918.238359     -918.265470  0.192721 -2.673153  1.783008
   scf:   14     -918.628528     -918.946358     -919.003221  0.354698 -2.692589  0.314907
   scf:   15     -918.109987     -918.745359     -918.787953  0.263873 -2.659531  1.019576
   scf:   16     -918.984249     -918.877507     -918.930364  0.061824 -2.673079  0.677072
   scf:   17     -919.022412     -918.971249     -919.031382  0.080608 -2.691282  0.269298
   scf:   18     -918.701475     -918.862157     -918.916907  0.090599 -2.672788  0.740676
   scf:   19     -918.983642     -918.986438     -919.049022  0.144219 -2.693858  0.120532
   scf:   20     -918.986941     -918.987203     -919.048714  0.011667 -2.694602  0.142193
   scf:   21     -918.987280     -918.987564     -919.049530  0.009643 -2.698827  0.093051
   scf:   22     -918.986848     -918.987721     -919.049231  0.012186 -2.705400  0.101688
   scf:   23     -918.987535     -918.987913     -919.050190  0.009089 -2.709627  0.062245
   scf:   24     -918.985370     -918.986889     -919.050169  0.014132 -2.721423  0.028234
   scf:   25     -918.987509     -918.987213     -919.050285  0.002401 -2.721952  0.030397
   scf:   26     -918.987381     -918.987298     -919.050307  0.000978 -2.722461  0.028219
   scf:   27     -918.988478     -918.987935     -919.050414  0.006354 -2.729653  0.004163
   scf:   28     -918.987905     -918.987920     -919.050415  0.000209 -2.729741  0.003743
   scf:   29     -918.987806     -918.987864     -919.050418  0.000855 -2.729928  0.002026
   scf:   30     -918.987932     -918.987899     -919.050418  0.000557 -2.729775  0.001843
   scf:   31     -918.987889     -918.987894     -919.050419  0.000057 -2.729811  0.001655
   scf:   32     -918.987877     -918.987886     -919.050419  0.000191 -2.730219  0.001131
   scf:   33     -918.987892     -918.987889     -919.050419  0.000051 -2.730353  0.000864

SCF Convergence by DM+H criterion
max |DM_out - DM_in|         :     0.0000509415
max |H_out - H_in|      (eV) :     0.0008644629
SCF cycle converged after 33 iterations

Using DM_out to compute the final energy and forces
No. of atoms with KB's overlaping orbs in proc 0. Max # of overlaps:       6      51

siesta: E_KS(eV) =             -918.9879

siesta: Atomic forces (eV/Ang):
----------------------------------------
   Tot    0.153515   -0.050418   -0.013703
----------------------------------------
   Max   25.698134
   Res   10.613539    sqrt( Sum f_i^2 / 3N )
----------------------------------------
   Max   25.698134    constrained

Stress tensor Voigt[x,y,z,yz,xz,xy] (kbar):     -117.51       -7.77       -2.29        0.72        3.39       -0.92
(Free)E + p*V (eV/cell)     -812.8547
Target enthalpy (eV/cell)     -919.0504

siesta: Stress tensor (static) (eV/Ang**3):
        -0.003355    0.000801    0.002399
         0.000802   -0.004534    0.000340
         0.002399    0.000340   -0.001369

siesta: Pressure (static):          4.94476355  kBar

siesta: Stress tensor (total) (eV/Ang**3):
        -0.073343   -0.000574    0.002114
        -0.000574   -0.004852    0.000449
         0.002114    0.000449   -0.001432

siesta: Pressure (total):         42.52607680  kBar

siesta: Temp_ion =  207331.235 K

                     ====================================
                        Begin MD step =      5
                     ====================================

outcell: Unit cell vectors (Ang):
       15.875310    0.000000    0.000000
        0.000000   15.875310    0.000000
        0.000000    0.000000   15.875310

outcell: Cell vector modules (Ang)   :   15.875310   15.875310   15.875310
outcell: Cell angles (23,13,12) (deg):     90.0000     90.0000     90.0000
outcell: Cell volume (Ang**3)        :   4000.9824
<dSpData1D:S at geom step 5
  <sparsity:sparsity for geom step 5
    nrows_g=51 nrows=51 sparsity=1.0000 nnzs=2601, refcount: 7>
  <dData1D:(new from dSpData1D) n=2601, refcount: 1>
refcount: 1>
new_DM -- step:     5
Re-using DM from previous geometries...
Number of DMs in history: 1
 DM extrapolation coefficients: 
1   1.00000
New DM after history re-use:
<dSpData2D:SpM extrapolated using coords
  <sparsity:sparsity for geom step 5
    nrows_g=51 nrows=51 sparsity=1.0000 nnzs=2601, refcount: 9>
  <dData2D:(temp array for extrapolation) n=2601 m=1, refcount: 1>
refcount: 1>
Note: For starting DM, Qtot, Tr[D*S] =         18.00000000         17.43571062
No. of atoms with KB's overlaping orbs in proc 0. Max # of overlaps:       6      51
New grid distribution:   1
           1       1:   72    1:   72    1:   72

InitMesh: MESH =   144 x   144 x   144 =     2985984
InitMesh: (bp) =    72 x    72 x    72 =      373248
InitMesh: Mesh cutoff (required, used) =   200.000   227.396 Ry
ExtMesh (bp) on 0 =   120 x   120 x   120 =     1728000
PhiOnMesh: Number of (b)points on node 0 =               373248
PhiOnMesh: nlist on node 0 =               242958

        iscf     Eharris(eV)        E_KS(eV)     FreeEng(eV)     dDmax    Ef(eV) dHmax(eV)
   scf:    1     -898.335543     -903.500179     -903.500179  0.733384 -2.865743 11.459612
   scf:    2     -323.636513     -723.930972     -723.930972  2.252050 -0.546107 78.996858
   scf:    3     -928.408347     -906.807462     -906.807462  2.189153 -2.693690  4.259761
   scf:    4     -837.246148     -881.793728     -881.793738  0.897598 -2.218016 27.187593
   scf:    5     -655.017563     -785.830355     -785.830355  1.269052 -0.946001 60.770282
   scf:    6     -733.748844     -760.360876     -760.360876  0.230423 -0.261500 67.503987
   scf:    7     -899.767975     -836.725713     -836.725713  0.708356 -1.715954 45.947229
   scf:    8     -829.181289     -832.980965     -832.980965  0.064766 -1.713923 47.068765
   scf:    9     -905.693375     -873.033898     -873.033975  0.461504 -1.971627 32.461661
   scf:   10     -876.945020     -904.083704     -904.083704  1.657078 -2.745844 10.945861
   scf:   11     -842.374360     -890.552995     -890.553059  0.867975 -2.077812 23.027208
   scf:   12     -909.260773     -907.798049     -907.798049  0.688080 -2.487265  1.099202
   scf:   13     -904.643181     -906.781047     -906.781047  0.189468 -2.634491  5.720591
   scf:   14     -907.271656     -907.824904     -907.824904  0.173647 -2.524247  1.681128
   scf:   15     -905.321571     -907.182287     -907.182287  0.181069 -2.690545  4.898411
   scf:   16     -908.193361     -907.825750     -907.825750  0.061558 -2.655242  2.037098
   scf:   17     -907.626655     -907.733851     -907.733851  0.034139 -2.724543  2.729406
   scf:   18     -907.819553     -907.915951     -907.915951  0.075639 -2.608657  0.606383
   scf:   19     -907.929171     -907.945764     -907.945764  0.060313 -2.570865  0.493247
   scf:   20     -907.949319     -907.955053     -907.955053  0.021155 -2.567630  0.221849
   scf:   21     -907.952019     -907.955177     -907.955177  0.008020 -2.577892  0.233631
   scf:   22     -907.956423     -907.956308     -907.956308  0.005350 -2.573093  0.162873
   scf:   23     -907.954989     -907.957139     -907.957140  0.012259 -2.603078  0.267004
   scf:   24     -907.959054     -907.959212     -907.959213  0.010874 -2.595480  0.030746
   scf:   25     -907.959226     -907.959226     -907.959227  0.000495 -2.595862  0.034442
   scf:   26     -907.959227     -907.959231     -907.959232  0.001252 -2.595326  0.037459
   scf:   27     -907.958738     -907.959182     -907.959182  0.007444 -2.599614  0.092406
   scf:   28     -907.959454     -907.959435     -907.959436  0.003565 -2.596805  0.006964
   scf:   29     -907.959435     -907.959436     -907.959436  0.000510 -2.596142  0.007265
   scf:   30     -907.959436     -907.959436     -907.959437  0.000085 -2.595978  0.007556
   scf:   31     -907.959440     -907.959438     -907.959439  0.000333 -2.596483  0.008316
   scf:   32     -907.959438     -907.959438     -907.959439  0.000114 -2.596577  0.007485
   scf:   33     -907.959441     -907.959440     -907.959441  0.000248 -2.596539  0.005846
   scf:   34     -907.959442     -907.959441     -907.959442  0.000194 -2.596488  0.004612
   scf:   35     -907.959447     -907.959444     -907.959445  0.000591 -2.596794  0.003697
   scf:   36     -907.959446     -907.959445     -907.959446  0.000109 -2.596926  0.003434
   scf:   37     -907.959449     -907.959447     -907.959448  0.000397 -2.596936  0.002322
   scf:   38     -907.959447     -907.959447     -907.959448  0.000017 -2.596912  0.002247
   scf:   39     -907.959448     -907.959448     -907.959449  0.000138 -2.596568  0.001087
   scf:   40     -907.959448     -907.959448     -907.959449  0.000020 -2.596549  0.000919

SCF Convergence by DM+H criterion
max |DM_out - DM_in|         :     0.0000201333
max |H_out - H_in|      (eV) :     0.0009191061
SCF cycle converged after 40 iterations

Using DM_out to compute the final energy and forces
No. of atoms with KB's overlaping orbs in proc 0. Max # of overlaps:       6      51

siesta: E_KS(eV) =             -907.9594

siesta: Atomic forces (eV/Ang):
----------------------------------------
   Tot    0.172499   -0.101855   -0.003064
----------------------------------------
   Max   80.680516
   Res   34.218382    sqrt( Sum f_i^2 / 3N )
----------------------------------------
   Max   80.680516    constrained

Stress tensor Voigt[x,y,z,yz,xz,xy] (kbar):     -120.23      -17.75       -8.76       -8.13       11.29        3.78
(Free)E + p*V (eV/cell)     -785.8054
Target enthalpy (eV/cell)     -907.9594

siesta: Stress tensor (static) (eV/Ang**3):
        -0.010650    0.005331    0.007703
         0.005331   -0.009290   -0.005655
         0.007703   -0.005655   -0.005156

siesta: Pressure (static):         13.40291184  kBar

siesta: Stress tensor (total) (eV/Ang**3):
        -0.075043    0.002356    0.007046
         0.002356   -0.011081   -0.005076
         0.007046   -0.005076   -0.005469

siesta: Pressure (total):         48.91661723  kBar

siesta: Temp_ion =  187667.946 K

                     ====================================
                        Begin MD step =      6
                     ====================================

outcell: Unit cell vectors (Ang):
       15.875310    0.000000    0.000000
        0.000000   15.875310    0.000000
        0.000000    0.000000   15.875310

outcell: Cell vector modules (Ang)   :   15.875310   15.875310   15.875310
outcell: Cell angles (23,13,12) (deg):     90.0000     90.0000     90.0000
outcell: Cell volume (Ang**3)        :   4000.9824
<dSpData1D:S at geom step 6
  <sparsity:sparsity for geom step 6
    nrows_g=51 nrows=51 sparsity=1.0000 nnzs=2601, refcount: 7>
  <dData1D:(new from dSpData1D) n=2601, refcount: 1>
refcount: 1>
new_DM -- step:     6
Re-using DM from previous geometries...
Number of DMs in history: 1
 DM extrapolation coefficients: 
1   1.00000
New DM after history re-use:
<dSpData2D:SpM extrapolated using coords
  <sparsity:sparsity for geom step 6
    nrows_g=51 nrows=51 sparsity=1.0000 nnzs=2601, refcount: 9>
  <dData2D:(temp array for extrapolation) n=2601 m=1, refcount: 1>
refcount: 1>
Note: For starting DM, Qtot, Tr[D*S] =         18.00000000         17.58808498
No. of atoms with KB's overlaping orbs in proc 0. Max # of overlaps:       6      51
New grid distribution:   1
           1       1:   72    1:   72    1:   72

InitMesh: MESH =   144 x   144 x   144 =     2985984
InitMesh: (bp) =    72 x    72 x    72 =      373248
InitMesh: Mesh cutoff (required, used) =   200.000   227.396 Ry
ExtMesh (bp) on 0 =   120 x   120 x   120 =     1728000
PhiOnMesh: Number of (b)points on node 0 =               373248
PhiOnMesh: nlist on node 0 =               242945

        iscf     Eharris(eV)        E_KS(eV)     FreeEng(eV)     dDmax    Ef(eV) dHmax(eV)
   scf:    1     -827.687280     -876.647883     -876.648070  1.263753 -2.913753 25.599373
   scf:    2     -634.761815     -831.077540     -831.077540  2.045163 -0.238048 65.960565
   scf:    3     -907.173676     -872.700466     -872.700466  1.082247 -5.287953 36.446161
   scf:    4     -850.451577     -861.940918     -861.940918  0.378375 -1.561428 45.535787
   scf:    5     -863.234539     -862.588794     -862.588794  0.021722 -1.354580 44.998983
   scf:    6     -384.092460     -768.563672     -768.563672  2.060282 -0.792537 64.539698
   scf:    7     -717.638732     -743.611462     -743.611462  0.303887 -1.327049 71.022670
   scf:    8     -710.696070     -727.335809     -727.335809  0.151433  0.291579 76.015633
   scf:    9     -722.404364     -878.172201     -878.172201  2.115182 -5.890282 31.566056
   scf:   10     -527.939002     -805.268671     -805.268671  1.911499 -2.072282 53.946668
   scf:   11     -771.230247     -883.416566     -883.416566  1.909558 -4.554455 27.284523
   scf:   12     -867.492084     -875.728304     -875.728304  0.224949 -6.794237 33.284521
   scf:   13     -877.852509     -876.799314     -876.799314  0.056656 -6.822695 32.685401
   scf:   14     -450.314557     -782.547324     -782.547324  2.023730 -1.370350 61.381365
   scf:   15     -941.067685     -889.656072     -889.675308  1.798244 -2.542218 19.691365
   scf:   16     -828.370193     -862.987360     -862.990750  0.922016 -2.241129 34.858917
   scf:   17     -889.788481     -877.220826     -877.230918  0.454149 -2.374476 27.875043
   scf:   18     -812.098763     -885.069207     -885.069207  1.746446 -4.095464 25.468333
   scf:   19     -891.299472     -901.741819     -901.742251  1.259904 -2.920011  6.012091
   scf:   20     -889.579462     -899.821004     -899.821004  0.749051 -3.512994 10.951583
   scf:   21     -895.197744     -901.697336     -901.698445  0.775498 -3.014591  5.780576
   scf:   22     -903.229660     -902.557550     -902.557865  0.123864 -3.087430  3.417143
   scf:   23     -902.010688     -902.294561     -902.294887  0.051973 -3.075269  4.132111
   scf:   24     -902.372954     -902.341342     -902.342593  0.042962 -2.976880  4.548033
   scf:   25     -903.424849     -903.015854     -903.016273  0.140772 -3.057487  1.713673
   scf:   26     -876.562341     -893.619043     -893.633271  1.597162 -3.000324 14.106953
   scf:   27     -899.841950     -896.916175     -896.953637  0.499918 -3.008759 11.438223
   scf:   28     -899.206575     -902.825298     -902.825521  1.087380 -3.108485  3.808196
   scf:   29     -903.363006     -903.195008     -903.196248  0.136182 -3.095595  1.515810
   scf:   30     -903.154795     -903.177356     -903.180113  0.042710 -3.124021  1.816193
   scf:   31     -903.235008     -903.209527     -903.214473  0.023414 -3.115692  1.366651
   scf:   32     -903.149604     -903.220560     -903.242472  0.081808 -3.054132  0.453401
   scf:   33     -903.257089     -903.245339     -903.263539  0.060117 -3.049584  0.165233
   scf:   34     -903.240263     -903.244057     -903.264208  0.017526 -3.040966  0.257883
   scf:   35     -903.176762     -903.233136     -903.246299  0.096868 -3.048641  0.867515
   scf:   36     -903.245712     -903.244860     -903.265914  0.057937 -3.041870  0.367276
   scf:   37     -903.244446     -903.244818     -903.267134  0.010400 -3.043431  0.293657
   scf:   38     -903.252943     -903.249506     -903.270679  0.031107 -3.043187  0.196587
   scf:   39     -903.248387     -903.249372     -903.271879  0.015650 -3.043048  0.069932
   scf:   40     -903.247507     -903.249546     -903.272831  0.046307 -3.044706  0.139148
   scf:   41     -903.246807     -903.248432     -903.272828  0.007534 -3.044900  0.034822
   scf:   42     -903.250059     -903.249331     -903.273247  0.010666 -3.045385  0.066404
   scf:   43     -903.238805     -903.245231     -903.270952  0.016046 -3.045288  0.221847
   scf:   44     -903.251530     -903.250230     -903.273352  0.028047 -3.045600  0.076455
   scf:   45     -903.249049     -903.249736     -903.273505  0.004573 -3.045904  0.019193
   scf:   46     -903.251351     -903.250628     -903.273602  0.013029 -3.049429  0.032507
   scf:   47     -903.251417     -903.251036     -903.273603  0.003099 -3.050031  0.014790
   scf:   48     -903.251687     -903.251386     -903.273666  0.006235 -3.052876  0.014485
   scf:   49     -903.251226     -903.251308     -903.273673  0.000648 -3.053063  0.009961
   scf:   50     -903.250894     -903.251104     -903.273677  0.002123 -3.055325  0.009636
   scf:   51     -903.251215     -903.251160     -903.273678  0.000374 -3.055378  0.005865
   scf:   52     -903.250905     -903.251033     -903.273679  0.000858 -3.057599  0.003098
   scf:   53     -903.251103     -903.251072     -903.273674  0.000974 -3.058173  0.011728
   scf:   54     -903.250850     -903.250964     -903.273677  0.000829 -3.058448  0.002368
   scf:   55     -903.251111     -903.251038     -903.273680  0.001100 -3.059628  0.001365
   scf:   56     -903.251040     -903.251039     -903.273680  0.000092 -3.059659  0.000962

SCF Convergence by DM+H criterion
max |DM_out - DM_in|         :     0.0000924995
max |H_out - H_in|      (eV) :     0.0009616245
SCF cycle converged after 56 iterations

Using DM_out to compute the final energy and forces
No. of atoms with KB's overlaping orbs in proc 0. Max # of overlaps:       6      51

siesta: E_KS(eV) =             -903.2510

siesta: Atomic forces (eV/Ang):
----------------------------------------
   Tot    0.043042   -0.141450   -0.051983
----------------------------------------
   Max   93.968221
   Res   45.485663    sqrt( Sum f_i^2 / 3N )
----------------------------------------
   Max   93.968221    constrained

Stress tensor Voigt[x,y,z,yz,xz,xy] (kbar):      -96.14      -32.73      -18.36      -18.19        9.83        1.50
(Free)E + p*V (eV/cell)     -780.7189
Target enthalpy (eV/cell)     -903.2737

siesta: Stress tensor (static) (eV/Ang**3):
        -0.005218    0.006438    0.008450
         0.006438   -0.016120   -0.011894
         0.008450   -0.011894   -0.010365

siesta: Pressure (static):         16.93149935  kBar

siesta: Stress tensor (total) (eV/Ang**3):
        -0.060003    0.000939    0.006138
         0.000939   -0.020430   -0.011351
         0.006138   -0.011351   -0.011460

siesta: Pressure (total):         49.07708575  kBar

siesta: Temp_ion =  184846.910 K

                     ====================================
                        Begin MD step =      7
                     ====================================

outcell: Unit cell vectors (Ang):
       15.875310    0.000000    0.000000
        0.000000   15.875310    0.000000
        0.000000    0.000000   15.875310

outcell: Cell vector modules (Ang)   :   15.875310   15.875310   15.875310
outcell: Cell angles (23,13,12) (deg):     90.0000     90.0000     90.0000
outcell: Cell volume (Ang**3)        :   4000.9824
<dSpData1D:S at geom step 7
  <sparsity:sparsity for geom step 7
    nrows_g=51 nrows=51 sparsity=1.0000 nnzs=2601, refcount: 7>
  <dData1D:(new from dSpData1D) n=2601, refcount: 1>
refcount: 1>
new_DM -- step:     7
Re-using DM from previous geometries...
Number of DMs in history: 1
 DM extrapolation coefficients: 
1   1.00000
New DM after history re-use:
<dSpData2D:SpM extrapolated using coords
  <sparsity:sparsity for geom step 7
    nrows_g=51 nrows=51 sparsity=1.0000 nnzs=2601, refcount: 9>
  <dData2D:(temp array for extrapolation) n=2601 m=1, refcount: 1>
refcount: 1>
Note: For starting DM, Qtot, Tr[D*S] =         18.00000000         17.64646348
No. of atoms with KB's overlaping orbs in proc 0. Max # of overlaps:       6      47
New grid distribution:   1
           1       1:   72    1:   72    1:   72

InitMesh: MESH =   144 x   144 x   144 =     2985984
InitMesh: (bp) =    72 x    72 x    72 =      373248
InitMesh: Mesh cutoff (required, used) =   200.000   227.396 Ry
ExtMesh (bp) on 0 =   120 x   120 x   120 =     1728000
PhiOnMesh: Number of (b)points on node 0 =               373248
PhiOnMesh: nlist on node 0 =               242474

        iscf     Eharris(eV)        E_KS(eV)     FreeEng(eV)     dDmax    Ef(eV) dHmax(eV)
   scf:    1     -828.873305     -889.345139     -889.345543  1.953932 -3.177695 31.808328
   scf:    2     -608.987551     -839.292794     -839.292794  1.690777 -0.688591 75.556653
   scf:    3     -924.345898     -885.732205     -885.732205  1.140828 -3.293483 40.653316
   scf:    4     -891.959898     -888.881899     -888.881899  0.128771 -6.053281 37.715000
   scf:    5     -890.698954     -889.793556     -889.793556  0.036501 -5.960919 36.858356
   scf:    6     -588.868814     -839.511331     -839.511332  1.785033 -2.866060 50.405641
   scf:    7     -735.970193     -790.542376     -790.542376  0.604432 -2.130121 63.861608
   scf:    8     -893.745878     -845.886478     -845.886479  0.666453 -2.899719 48.433471
   scf:    9     -699.379423     -777.934416     -777.934416  0.810641 -1.872438 67.107702
   scf:   10     -934.473429     -920.442889     -920.448830  2.365296 -3.597516  4.327539
   scf:   11     -866.387624     -904.574552     -904.574552  1.260800 -4.740802 24.112086
   scf:   12     -921.813530     -914.105853     -914.105853  0.323929 -4.263750 15.797212
   scf:   13     -910.182880     -912.197754     -912.197754  0.074725 -4.333224 17.718264
   scf:   14     -920.058282     -916.451587     -916.451590  0.235206 -4.187710 13.122929
   scf:   15     -922.704073     -920.802858     -920.803150  0.430683 -3.893354  4.460165
   scf:   16     -814.383888     -888.098693     -888.106859  1.345487 -2.817585 32.741389
   scf:   17     -898.069889     -919.121732     -919.121740  1.329227 -4.088276  9.120622
   scf:   18     -919.211286     -919.186614     -919.187766  0.071615 -3.754927  8.573315
   scf:   19     -922.152767     -921.020660     -921.043568  0.182680 -3.581988  3.756051
   scf:   20     -901.635104     -915.715421     -915.753545  1.340154 -3.424831 11.812296
   scf:   21     -915.770935     -915.745400     -915.780604  0.036265 -3.402008 11.932812
   scf:   22     -916.982813     -916.380324     -916.424744  0.080816 -3.446813 10.986755
   scf:   23     -913.378240     -915.112679     -915.123881  0.149736 -3.304263 13.548544
   scf:   24     -920.514088     -918.071591     -918.093091  0.420607 -3.351261  9.619480
   scf:   25     -917.418928     -917.839441     -917.886109  0.264462 -3.466170  9.089961
   scf:   26     -912.379470     -919.859044     -919.871425  1.234610 -3.632465  6.996712
   scf:   27     -919.532428     -921.192847     -921.251196  0.531132 -3.461892  2.499201
   scf:   28     -921.355244     -921.356519     -921.411918  0.089510 -3.544313  1.673257
   scf:   29     -921.137550     -921.342656     -921.386370  0.169005 -3.464130  2.033253
   scf:   30     -921.396521     -921.403464     -921.416646  0.254860 -3.384715  1.466849
   scf:   31     -895.476634     -913.267767     -913.297834  1.491222 -3.204153 16.231247
   scf:   32     -912.208994     -920.388991     -920.399815  1.478041 -3.642682  5.679498
   scf:   33     -920.602830     -920.497856     -920.509956  0.024838 -3.555387  5.341624
   scf:   34     -920.424676     -920.471017     -920.485084  0.082854 -3.701898  5.342086
   scf:   35     -921.785252     -921.254389     -921.270073  0.161324 -3.361337  2.440544
   scf:   36     -920.193946     -920.811906     -920.860363  0.313089 -3.582663  4.570699
   scf:   37     -920.223019     -920.592474     -920.609018  0.419405 -3.617778  5.222488
   scf:   38     -872.761311     -907.408610     -907.419076  1.501693 -3.126727 20.410326
   scf:   39     -912.787237     -920.686490     -920.712812  1.400962 -3.606366  4.879210
   scf:   40     -918.574015     -919.718998     -919.729449  0.138950 -3.841782  7.454528
   scf:   41     -921.078111     -920.442102     -920.463094  0.103468 -3.613132  5.577009
   scf:   42     -918.303122     -919.448253     -919.458634  0.093236 -3.862145  8.006754
   scf:   43     -921.078619     -920.331177     -920.344927  0.083692 -3.711441  5.827561
   scf:   44     -920.699282     -920.520529     -920.533845  0.066892 -3.658740  5.391915
   scf:   45     -831.610088     -894.493757     -894.493833  1.944638 -3.190466 27.475514
   scf:   46     -908.549865     -920.435518     -920.455944  1.917254 -3.736568  5.616753
   scf:   47     -920.515909     -920.480749     -920.508462  0.083018 -3.828821  5.542630
   scf:   48     -920.203910     -920.346544     -920.378724  0.056355 -3.908622  6.093397
   scf:   49     -921.152165     -920.782385     -920.824015  0.117170 -3.817121  4.779435
   scf:   50     -920.828093     -920.815541     -920.854280  0.145249 -3.873131  4.532139
   scf:   51     -920.860375     -920.842229     -920.887178  0.068737 -3.910319  4.368590
   scf:   52     -830.498412     -893.480769     -893.480791  1.757488 -3.257152 27.787079
   scf:   53     -909.391555     -920.541698     -920.578500  1.851904 -3.940137  5.515624
   scf:   54     -921.127240     -920.858217     -920.894441  0.069165 -3.933441  4.394235
   scf:   55     -920.700497     -920.782469     -920.813997  0.040129 -3.930450  4.743946
   scf:   56     -921.303472     -921.073940     -921.114599  0.128823 -3.862539  3.461270
   scf:   57     -920.863872     -920.971810     -921.011900  0.032820 -3.919456  3.863159
   scf:   58     -920.788197     -920.898375     -920.926568  0.126926 -3.801484  4.378035
   scf:   59     -837.939337     -896.013306     -896.014223  1.738184 -3.466019 26.730786
   scf:   60     -909.963648     -920.628231     -920.649446  1.770916 -4.016698  5.516869
   scf:   61     -920.666019     -920.647336     -920.667551  0.016919 -4.010667  5.444584
   scf:   62     -920.808630     -920.731149     -920.747140  0.056164 -4.003583  5.296581
   scf:   63     -920.790658     -920.765964     -920.787801  0.089341 -3.945039  5.039718
   scf:   64     -920.436519     -920.608313     -920.631205  0.092157 -4.091141  5.689723
   scf:   65     -920.997351     -920.812597     -920.839228  0.097837 -3.935937  4.909447
   scf:   66     -852.784505     -900.883117     -900.885415  1.561003 -3.546233 23.905330
   scf:   67     -911.791549     -920.757975     -920.771617  1.608407 -4.064485  5.330112
   scf:   68     -920.683658     -920.721018     -920.735167  0.006321 -4.080032  5.438109
   scf:   69     -920.916182     -920.821652     -920.843382  0.062789 -3.993773  5.065842
   scf:   70     -920.678989     -920.754390     -920.773660  0.075191 -4.024344  5.384609
   scf:   71     -920.593041     -920.674929     -920.695561  0.017490 -4.059091  5.560973
   scf:   72     -920.567034     -920.621852     -920.641552  0.034382 -4.079543  5.725193
   scf:   73     -819.997744     -890.733636     -890.733702  1.909785 -3.510442 28.802317
   scf:   74     -909.011620     -920.602635     -920.622514  1.916353 -4.024362  5.689133
   scf:   75     -920.862472     -920.735399     -920.750683  0.040353 -3.952241  5.289290
   scf:   76     -920.732310     -920.734613     -920.754612  0.044165 -3.927931  5.233071
   scf:   77     -920.583395     -920.659859     -920.678033  0.022153 -3.973170  5.501911
   scf:   78     -920.718889     -920.690044     -920.709635  0.036488 -3.950268  5.394776
   scf:   79     -920.858771     -920.776043     -920.792713  0.031256 -3.951909  5.200019
   scf:   80     -859.265905     -903.041973     -903.045714  1.535552 -3.536133 22.691986
   scf:   81     -911.699031     -920.704469     -920.721527  1.530336 -4.001831  5.450077
[...]
   Res    1.363384    sqrt( Sum f_i^2 / 3N )
----------------------------------------
   Max    3.139375    constrained

Stress tensor Voigt[x,y,z,yz,xz,xy] (kbar):      -61.05      -19.79      -11.32      -12.20       -6.99      -15.85
(Free)E + p*V (eV/cell)     -832.5159
Target enthalpy (eV/cell)     -909.2228

siesta: Stress tensor (static) (eV/Ang**3):
         0.001535   -0.000609    0.000309
        -0.000609    0.002278    0.000444
         0.000309    0.000444    0.000990

siesta: Pressure (static):         -2.56528072  kBar

siesta: Stress tensor (total) (eV/Ang**3):
        -0.038101   -0.009892   -0.004365
        -0.009892   -0.012351   -0.007613
        -0.004365   -0.007613   -0.007064

siesta: Pressure (total):         30.71731391  kBar

siesta: Temp_ion =  192370.394 K

                     ====================================
                        Begin MD step =     14
                     ====================================

outcell: Unit cell vectors (Ang):
       15.875310    0.000000    0.000000
        0.000000   15.875310    0.000000
        0.000000    0.000000   15.875310

outcell: Cell vector modules (Ang)   :   15.875310   15.875310   15.875310
outcell: Cell angles (23,13,12) (deg):     90.0000     90.0000     90.0000
outcell: Cell volume (Ang**3)        :   4000.9824
<dSpData1D:S at geom step 14
  <sparsity:sparsity for geom step 14
    nrows_g=51 nrows=51 sparsity=.7878 nnzs=2049, refcount: 7>
  <dData1D:(new from dSpData1D) n=2049, refcount: 1>
refcount: 1>
new_DM -- step:    14
Re-using DM from previous geometries...
Number of DMs in history: 1
 DM extrapolation coefficients: 
1   1.00000
New DM after history re-use:
<dSpData2D:SpM extrapolated using coords
  <sparsity:sparsity for geom step 14
    nrows_g=51 nrows=51 sparsity=.7878 nnzs=2049, refcount: 9>
  <dData2D:(temp array for extrapolation) n=2049 m=1, refcount: 1>
refcount: 1>
Note: For starting DM, Qtot, Tr[D*S] =         18.00000000         17.88614134
No. of atoms with KB's overlaping orbs in proc 0. Max # of overlaps:       6      25
New grid distribution:   1
           1       1:   72    1:   72    1:   72

InitMesh: MESH =   144 x   144 x   144 =     2985984
InitMesh: (bp) =    72 x    72 x    72 =      373248
InitMesh: Mesh cutoff (required, used) =   200.000   227.396 Ry
ExtMesh (bp) on 0 =   120 x   120 x   120 =     1728000
PhiOnMesh: Number of (b)points on node 0 =               373248
PhiOnMesh: nlist on node 0 =               243065

        iscf     Eharris(eV)        E_KS(eV)     FreeEng(eV)     dDmax    Ef(eV) dHmax(eV)
   scf:    1     -497.861174     -771.916683     -771.918303  1.591332 -5.452790 63.197956
   scf:    2      479.938757     -519.195394     -519.195394 15.719259 -9.279200145.493351
   scf:    3    -1007.836492     -789.155335     -789.155335 15.632506 -4.982708 65.340800
   scf:    4     -659.484041     -732.634319     -732.634319  2.095481 -2.156085 79.923290
   scf:    5     -732.924665     -732.779535     -732.779535  0.005961 -2.151634 79.911211
   scf:    6     -736.641630     -734.961339     -734.961339  0.458377 -4.507732 71.685227
   scf:    7     -750.214920     -742.682315     -742.682315  0.183614 -3.806060 65.214455
   scf:    8     1745.063871     -125.216861     -125.216861  2.083835 -2.761369137.113012
   scf:    9    -1002.249610     -628.709343     -628.709343  2.805862 -0.939109 86.763445
   scf:   10     -493.171998     -836.126402     -836.142305  2.239414 -5.055330 57.855102
   scf:   11     -754.390480     -822.095271     -822.095271  1.999979 -3.740094 38.703376
   scf:   12     -821.158186     -821.631812     -821.631812  0.054614 -3.222154 37.764645
   scf:   13     -807.428397     -814.665115     -814.665115  0.397872 -3.264646 44.835944
   scf:   14      127.956664     -606.244196     -606.244196  1.617371 -2.488888 91.209810
   scf:   15     -626.071985     -640.598664     -640.605810  2.041272 -7.031556 86.782577
   scf:   16     -474.540836     -583.567858     -583.567858  1.927605 -4.166126 96.148307
   scf:   17       32.254274     -712.522976     -712.522976  2.917030 -1.193810 89.217900
   scf:   18      233.129095     -637.558507     -637.578025  2.751792 -6.463824 89.272420
   scf:   19     -508.586370     -846.207251     -846.244538  1.999267 -4.208387 48.684613
   scf:   20      124.972544     -628.826906     -628.826906  2.111073 -0.798277 85.595392
   scf:   21     -588.131746     -832.605621     -832.605621  2.527247 -3.668494 35.620994
   scf:   22     -830.079725     -831.397340     -831.397340  0.182284 -3.845019 34.196036
   scf:   23      113.882788     -604.617626     -604.617626  2.345669 -2.497426 91.213521
   scf:   24     -658.905332     -632.415459     -632.415459  0.979663 -4.512261 78.177607
   scf:   25       10.181106     -717.803094     -717.803113  2.037094 -6.913160 95.530997
   scf:   26     -864.164658     -794.772556     -794.772556  1.026850 -4.141727 62.447773
   scf:   27      263.057124     -623.436461     -623.436461  2.030669 -3.229186 83.288165
   scf:   28     -636.968627     -630.341609     -630.341609  0.342579 -1.774294 82.615366
   scf:   29     -546.193031     -824.167526     -824.167526  2.073979 -4.062038 35.193506
   scf:   30       27.161535     -632.054120     -632.054120  2.125051 -2.357253 81.723296
   scf:   31     -627.455307     -629.759876     -629.759876  0.116109 -1.461831 83.061118
   scf:   32     -646.320264     -638.107966     -638.108243  0.215028 -2.951520 78.622992
   scf:   33      747.879211     -487.399157     -487.399157 20.837805-18.365830163.409324
   scf:   34     -869.553422     -810.342185     -810.342185 20.850356 -4.086277 50.202624
   scf:   35      687.985244     -440.818478     -440.830820  2.110897 -3.481308125.799042
   scf:   36      304.584883     -631.035126     -631.035126  2.011337 -2.797460 98.087721
   scf:   37     -936.511015     -802.555294     -802.555294  2.149647 -2.787119 59.259910
   scf:   38     -751.267269     -851.099609     -851.129637  1.610460 -2.658695 35.539075
   scf:   39      -11.956734     -623.185806     -623.185815  2.311767 -2.822334 80.677795
   scf:   40     -297.275809     -803.647715     -803.647715  1.999795 -3.134034 59.554246
   scf:   41     -835.027775     -844.995030     -844.996160  1.838562 -1.537944 53.703572
   scf:   42     -742.769540     -818.803619     -818.810684  1.973354 -0.098355 40.555524
   scf:   43     -849.328910     -851.916641     -851.922648  1.973353 -1.453645 44.721575
   scf:   44     -866.761758     -859.723475     -859.745150  0.597426 -2.462236 41.940255
   scf:   45     -852.263396     -856.082707     -856.097795  0.228255 -1.963974 42.863640
   scf:   46      641.970606     -449.509499     -449.511824  2.003285 -2.689029130.020724
   scf:   47     -762.801242     -633.208476     -633.208476  2.346311 -3.547922 79.436767
   scf:   48     -714.226938     -848.806811     -848.867422  2.384893 -4.452954 31.759172
   scf:   49     -633.715059     -814.271851     -814.271851  1.861224 -2.881613 51.989331
   scf:   50     -864.115274     -857.388985     -857.389335  1.670080 -3.050006 48.873657
   scf:   51     -844.018547     -851.383127     -851.383198  0.458354 -2.319761 48.452164
   scf:   52     -848.504744     -849.953188     -849.953192  0.060747 -2.234704 49.529046
   scf:   53     -870.575033     -861.910084     -861.910561  0.699704 -3.356609 46.273478
   scf:   54      673.122789     -440.640473     -440.640473  1.998223 -3.161092130.700059
   scf:   55     -613.522069     -849.660063     -849.665134  2.055925 -3.255981 38.802056
   scf:   56      -27.822533     -633.134093     -633.134098  2.053556 -4.544689 77.750069
   scf:   57     -548.061715     -856.442767     -856.446527  2.043004 -3.346318 46.844310
   scf:   58     -843.915960     -854.921731     -854.921766  1.023947 -2.587763 45.884088
   scf:   59     -858.189806     -856.575660     -856.575720  0.120311 -2.471903 42.981846
   scf:   60     -845.724703     -854.341863     -854.347244  0.806497 -3.090203 49.668268
   scf:   61     -858.842845     -860.973377     -860.977049  0.729829 -2.902508 41.404896
   scf:   62     -807.328108     -850.854979     -850.905519  1.318974 -4.181976 32.869628
   scf:   63      479.593901     -458.118949     -458.118951  2.451828 -2.200032129.927324
   scf:   64     -462.246394     -460.184332     -460.184344  0.128253 -2.551112127.389116
   scf:   65     -316.362002     -806.851128     -806.851128  2.042979 -3.618234 63.130078
   scf:   66     -802.612249     -804.741624     -804.741624  0.053562 -2.942353 65.228255
   scf:   67     -811.222346     -808.001625     -808.001625  0.094234 -3.788804 61.827748
   scf:   68       75.581676     -657.857858     -657.857861  2.108155 -3.247111 77.792263
   scf:   69     -586.172321     -857.059384     -857.059440  2.108739 -2.557756 50.510670
   scf:   70     -870.415835     -866.070351     -866.070994  0.749976 -3.908168 43.844141
   scf:   71      596.399202     -459.173980     -459.173980  2.010304 -1.178403140.557924
   scf:   72     -800.605059     -652.832538     -652.833964  2.734810 -3.026411 81.738190
   scf:   73     -654.793825     -654.095276     -654.132908  0.245633 -3.164473 82.670904
   scf:   74     -562.963820     -626.969231     -626.969604  1.749202 -3.240945 87.320893
   scf:   75     -623.117869     -625.100643     -625.100643  0.161829 -3.697446 87.298677
   scf:   76     -628.657559     -626.902091     -626.902427  0.104031 -3.330672 86.784397
   scf:   77     3479.624822      477.502891      477.449992 25.896814-19.131909240.531884
   scf:   78      824.927912      647.525209      647.503631  8.340094-32.763398271.994438
   scf:   79     -475.776137       51.724019       51.724019  8.615841-16.930831210.161049
   scf:   80      261.737494     -663.527291     -663.527291 26.169103 -2.814640 76.682707
   scf:   81     -631.426120     -865.655804     -865.655804  2.041011 -2.872337 41.810525
   scf:   82     -836.321721     -868.755082     -868.761851  1.472158 -3.711151 24.071534
   scf:   83     -115.138252     -652.220421     -652.240341  2.536905 -3.235429 86.323814
   scf:   84     -537.578700     -616.211962     -616.211962  1.898639 -3.621651 96.741895
   scf:   85     -915.993272     -810.972883     -811.044161  1.999119 -2.895524 40.566387
   scf:   86     -734.404146     -872.815070     -872.815070  2.124451 -3.491727 34.407311
   scf:   87     -872.363472     -872.602420     -872.602422  0.046462 -3.587586 34.599303
   scf:   88     -547.115287     -810.827283     -810.895608  2.133528 -3.201489 40.257996
   scf:   89     -497.052343     -684.361820     -684.393869  1.996578 -5.337933 85.619393
   scf:   90     -661.210532     -688.982042     -688.982046  1.996581 -3.044457 75.141722
   scf:   91     -688.220685     -688.602841     -688.602855  0.020891 -3.088606 75.319099
   scf:   92     -676.921196     -682.891345     -682.891345  0.159518 -3.401968 75.197656
   scf:   93     -571.909951     -668.977486     -669.035687  1.999830 -4.039833 82.895264
   scf:   94     -302.156114     -792.398436     -792.398436  1.999832  2.767608 56.739972
   scf:   95     -838.371534     -816.527428     -816.527428  0.803527 -2.662614 39.715416
   scf:   96       36.049208     -661.819192     -661.852006  2.340850 -3.399596 79.131501
   scf:   97     -704.372452     -699.924561     -699.925544  1.797228 -3.574659 79.892925
   scf:   98     -625.402115     -680.147781     -680.147781  1.999828 -3.048154 75.521845
   scf:   99     -678.844961     -679.496864     -679.496864  0.008764 -3.052858 75.695518
   scf:  100     -743.057911     -785.699713     -785.702206  2.007551 -5.149935 41.927741
   scf:  101     -662.473080     -860.626236     -860.626237  1.999911 -3.157785 45.042976
   scf:  102     -871.442092     -866.254882     -866.259982  0.179915 -3.467833 41.384500
   scf:  103     -876.269319     -871.661917     -871.662336  0.224358 -3.267883 38.154108
   scf:  104     -828.370116     -857.852609     -857.854430  1.126125 -3.784765 38.352992
   scf:  105     -845.445124     -859.352989     -859.353650  1.118672 -3.778965 45.728890
   scf:  106     -868.448134     -864.015418     -864.015439  0.169633 -3.444151 42.766540
   scf:  107      689.787311     -430.690181     -430.690181  2.026039 -4.479838128.228851
   scf:  108     -971.609403     -786.603627     -786.604494  2.234975 -6.360767 39.577538
   scf:  109     -670.891100     -839.547162     -839.547162  1.979716 -5.566369 36.528523
   scf:  110       43.853796     -623.734918     -623.734918  2.158661 -5.009155 81.151099
   scf:  111     -610.368317     -617.102886     -617.102886  0.207453 -5.090196 81.885286
   scf:  112     -631.169214     -687.855993     -687.855994  1.999817 -4.092299 72.723521
   scf:  113     -682.787533     -870.440690     -870.448191  2.283420 -4.490943 34.348981
   scf:  114     -862.773662     -866.957912     -866.962251  0.214824 -4.576103 33.362134
   scf:  115     -873.751057     -872.907773     -872.920801  0.532564 -4.361467 36.320759
   scf:  116     -847.407202     -864.302235     -864.319911  0.710303 -4.554255 32.008110
   scf:  117     -678.769055     -828.089870     -828.171166  1.337302 -4.596995 40.704207
   scf:  118     -705.060772     -863.695314     -863.695314  1.874234 -4.676031 41.517959
   scf:  119     -569.466597     -777.989064     -777.992453  1.999929 -4.016415 58.755518
   scf:  120     -860.366051     -836.638128     -836.638133  1.589152 -4.049696 39.914420
   scf:  121     -866.683295     -868.908436     -868.909836  1.999947 -4.655336 39.176981
   scf:  122     -871.021097     -870.104846     -870.104852  0.134408 -4.708530 37.764984
   scf:  123     -877.940247     -874.298691     -874.298692  0.207855 -4.735291 33.864367
   scf:  124      -54.118602     -663.671902     -663.671902  2.386337 -1.066680 81.717904
   scf:  125     -662.014608     -864.672115     -864.689198  2.400111 -3.597146 33.339645
   scf:  126     -836.852458     -851.936766     -851.961703  0.443951 -4.058353 33.717786
   scf:  127     -851.331101     -868.073719     -868.073827  1.125713 -2.388265 37.863335
   scf:  128     -862.797856     -866.622833     -866.626005  0.579109 -1.901858 38.459116
   scf:  129     -796.649641     -840.606768     -840.606817  1.540136 -1.402466 38.197678
   scf:  130     -855.126392     -848.359534     -848.360409  0.398892 -1.260140 35.680615
   scf:  131      -72.572001     -669.280444     -669.280444  2.478069  0.143966 92.038524
   scf:  132     -601.720955     -848.410293     -848.420406  2.443082 -1.961636 34.747108
   scf:  133     -854.074643     -851.376608     -851.380832  0.235803 -1.681474 34.789603
   scf:  134     -844.603662     -848.123594     -848.133605  0.310721 -2.203935 34.353277
   scf:  135     -842.590284     -868.517874     -868.518266  2.073777 -0.573884 34.007253
   scf:  136     -869.044934     -868.782067     -868.782631  0.026273 -0.640735 33.565902
   scf:  137     -253.420291     -732.157009     -732.166592  2.626835 -3.255432 87.349183
   scf:  138     -670.079911     -867.592394     -867.618883  2.398552 -3.406056 36.189812
   scf:  139     -868.248983     -886.053598     -886.054836  1.661680 -3.032110 20.816633
   scf:  140     -418.674057     -736.022792     -736.082350  2.491822 -3.559197 79.151026
   scf:  141     -620.223670     -687.638811     -687.641534  1.425879 -2.942993 78.079396
   scf:  142     -648.824207     -867.331133     -867.390990  2.173842 -3.524192 40.222522
   scf:  143     -865.496447     -867.156187     -867.156883  0.791612 -4.300421 42.485284
   scf:  144     -871.760241     -869.499463     -869.499562  0.131451 -4.704732 39.670707
   scf:  145     -865.277752     -867.422612     -867.423235  0.117489 -4.317969 42.168724
   scf:  146     -249.116743     -739.814272     -739.832167  2.054499 -3.326686 77.006876
   scf:  147     -651.540083     -869.760268     -869.764488  2.126514 -4.191587 39.370164
   scf:  148     -826.036775     -858.825512     -858.888748  1.344675 -3.345491 39.997179
   scf:  149     -854.090176     -869.015381     -869.034838  1.344676 -5.541299 36.533168
   scf:  150     -868.958979     -870.121100     -870.123440  0.264065 -4.258503 38.600735
SCF_NOT_CONV: SCF did not converge in maximum number of steps (required).
SCF_NOT_CONV: SCF did not converge in maximum number of steps (required).
Geom step, scf iteration, dmax:   14   150    2.837079
Geom step, scf iteration, dmax:   14   150    2.837079

timer: Elapsed wall time (sec) =    1591.441
timer: CPU execution times (sec):

Routine            Calls   Time/call    Tot.time        %
siesta                 1    3139.001    3139.001   100.00
Setup                  1       0.318       0.318     0.01
bands                  1       0.000       0.000     0.00
KSV_init               1       0.000       0.000     0.00
IterGeom              14     224.192    3138.683    99.99
state_init            14       0.101       1.419     0.05
hsparse               14       0.000       0.002     0.00
overlap               14       0.101       1.412     0.04
Setup_H0              14       2.291      32.068     1.02
naefs                 27       0.000       0.003     0.00
MolMec                27       0.000       0.000     0.00
kinefsm               27       0.054       1.445     0.05
nlefsm                27       0.469      12.669     0.40
DHSCF_Init            14       1.286      18.000     0.57
DHSCF1                14       0.025       0.345     0.01
INITMESH              14       0.000       0.000     0.00
DHSCF2                14       1.261      17.655     0.56
REMESH                14       0.034       0.477     0.02
REORD               2518       0.043     108.145     3.45
PHION                 14       0.160       2.237     0.07
COMM_BSC            4680       0.026     122.191     3.89
POISON              1174       1.584    1859.708    59.25
fft                 2348       0.591    1387.465    44.20
IterSCF             1133       2.723    3084.915    98.28
setup_H             1147       2.674    3066.913    97.70
DHSCF               1160       2.657    3082.268    98.19
DHSCF3              1160       2.654    3078.781    98.08
rhoofd              1160       0.306     355.116    11.31
XC                  1160       0.191     221.376     7.05
GXC-CellXC          1160       0.160     185.089     5.90
cellXC              1160       0.160     185.039     5.89
vmat                1160       0.012      14.293     0.46
compute_dm          1133       0.016      17.579     0.56
diagon              1133       0.015      17.463     0.56
r-eigvec            1133       0.013      15.210     0.48
r-buildHS           1133       0.000       0.016     0.00
rdiag               1133       0.013      15.178     0.48
rdiag1              1133       0.000       0.019     0.00
rdiag2              1133       0.000       0.048     0.00
rdiag3              1133       0.006       6.296     0.20
rdiag4              1133       0.008       8.753     0.28
r-buildD            1133       0.002       1.915     0.06
MIXER               1120       0.000       0.099     0.00
PostSCF               13       1.559      20.269     0.65
DHSCF4                13       0.267       3.472     0.11
dfscf                 13       0.164       2.127     0.07
overfsm               13       0.001       0.011     0.00
state_analysis        13       0.000       0.003     0.00
siesta_move           13       0.000       0.006     0.00
  
ABNORMAL_TERMINATION
Stopping Program from Node:    0
ABNORMAL_TERMINATION
Stopping Program from Node:    0
--------------------------------------------------------------------------
MPI_ABORT was invoked on rank 0 in communicator MPI COMMUNICATOR 3 CREATE FROM 0
with errorcode 1.

NOTE: invoking MPI_ABORT causes Open MPI to kill all MPI processes.
You may or may not see output from other processes, depending on
exactly when Open MPI kills them.
--------------------------------------------------------------------------
