Siesta Version  : 4.1.5
Architecture    : unknown
Compiler version: GNU Fortran (GCC) 9.4.0
Compiler flags  : mpifort -march=nocona -mtune=haswell -ftree-vectorize -fPIC -fstack-protectorr-strong -fno-plt -O2 -ffunction-sections -pipe
PP flags        : -DFC_HAVE_ABORT -DCDF -DMPI -DSIESTA__MRRR -DNCDF -DNCDF_4
Libraries       : libncdf.a libfdict.a -lscalapack -llapack -lblas -lnetcdff -lnetcdf -lhdf5_hll -lhdf5 -lz
PARALLEL version
NetCDF support
NetCDF-4 support

* Running in serial mode with MPI
>> Start of run:  13-JUN-2023  19:40:23

                           ***********************       
                           *  WELCOME TO SIESTA  *       
                           ***********************       

reinit: Reading from standard input
reinit: Dumped input in INPUT_TMP.98827
************************** Dump of input data file ****************************
SystemName CO+NH3 reaction             # Descriptive name of the system
SystemLabel            CO+NH3          # Short name for naming files
# Species and atoms
NumberOfSpecies       4
NumberOfAtoms         6
%block ChemicalSpeciesLabel
  1   8   O
  2   6   C
  3   1   H
  4   7   N
%endblock ChemicalSpeciesLabel
# Basis
%block PAO.BasisSizes
    C DZP
    O DZP
    N DZP
    H SZP
%endblock PAO.BasisSizes
LatticeConstant       1.0000 Ang
%block LatticeVectors
15.00000   0.000000  0.000000
 0.00000  15.000000  0.000000
 0.00000   0.000000 15.000000
%endblock LatticeVectors
%block kgrid_Monkhorst_Pack
   1  0  0  0.
   0  1  0  0.
   0  0  1  0.
%endblock Kgrid_Monkhorst_Pack
xc.functional         GGA           # Exchange-correlation functional
xc.authors            PBE           # Exchange-correlation version
#SpinPolarized         true          # Logical parameters are: yes or no
MeshCutoff           200. Ry        # Mesh cutoff. real space mesh
# SCF options
#SCFMustConvergence     true
MaxSCFIterations       150          # Maximum number of SCF iter
DM.MixingWeight       0.02          # New DM amount for next SCF cycle
DM.Tolerance          3.d-4         # Tolerance in maximum difference
                                    # between input and output DM
DM.NumberPulay          6           # to use continuation files
#DM.NumberBroyden       3
#DM.AllowExtrapolation  false
MD.UseSaveData           true
Diag.DivideAndConquer 	true
SolutionMethod        diagon        # OrderN or Diagon
ElectronicTemperature  25 meV       # Temp. for Fermi smearing
# -----------------------------
#  MD options
#  options for a basic MD run
# -----------------------------
# Options to Integrate Equations of motion
MD.TypeOfRun         verlet         # Standard Verlet algrithm
                                    # for Molecular Dynamics
MD.LengthTimeStep         1.0 fs    # time step integration
                                    # Newton eqs of motion
MD.Initial.Time.Step     1          #initial time step of MD
MD.FinalTimeStep         100        #Final time step of MD
# Initial Atomic coordinates and Velocity for MD run
MD.InitialTemperature     0 K       #Assign initial random velocity from
                                    # a Maxwell-Boltzmann distribution
                                    # for a given temperature
MD.UseSaveXV 		true            # use atomic Positions
                                    # and Velocities from
                                    # a saved XV file
AtomicCoordinatesFormat Ang         #Use Angstroms for atomic coordinates
%block AtomicCoordinatesAndAtomicSpecies
        0.000000  0.000000  0.000000  4 ! N 1
        0.000000 -0.937700 -0.381600  3 ! H 2
        0.812100  0.468900 -0.381600  3 ! H 3
       -0.812100  0.468900 -0.381600  3 ! H 4
        0.000000  0.000000  2.000000  2 ! C 5
        0.000000  0.000000  3.128000  1 ! O 6
%endblock AtomicCoordinatesAndAtomicSpecies
#MD Output
WriteCoorXmol          true         #Save the final coordinates in .xyz format
WriteMDXmol            true         #Writes the coordinates
                                    #of all atoms at all steps
                                    #in a .ANI file
                                    #in xyz format
WriteMDhistory         true         #writes .MDE and .MD files
                                    # with output data from MD simulation
                                    # MDE contains: Temp, energy, volume, pressure
                                    # (human readable)
                                    # MD contains coords vel lattice vectors
                                    # (unformatted; post-process with iomd.f)
************************** End of input data file *****************************

reinit: -----------------------------------------------------------------------
reinit: System Name: CO+NH3 reaction
reinit: -----------------------------------------------------------------------
reinit: System Label: CO+NH3
reinit: -----------------------------------------------------------------------

initatom: Reading input for the pseudopotentials and atomic orbitals ----------
Species number:   1 Atomic number:    8 Label: O
Species number:   2 Atomic number:    6 Label: C
Species number:   3 Atomic number:    1 Label: H
Species number:   4 Atomic number:    7 Label: N

Ground state valence configuration:   2s02  2p04
Reading pseudopotential information in formatted form from O.psf

Valence configuration for pseudopotential generation:
2s( 2.00) rc: 1.47
2p( 4.00) rc: 1.47
3d( 0.00) rc: 1.47
4f( 0.00) rc: 1.47
Ground state valence configuration:   2s02  2p02
Reading pseudopotential information in formatted form from C.psf

Valence configuration for pseudopotential generation:
2s( 2.00) rc: 1.54
2p( 2.00) rc: 1.54
3d( 0.00) rc: 1.54
4f( 0.00) rc: 1.54
Ground state valence configuration:   1s01
Reading pseudopotential information in formatted form from H.psf

Valence configuration for pseudopotential generation:
1s( 1.00) rc: 1.31
2p( 0.00) rc: 1.31
3d( 0.00) rc: 0.37
4f( 0.00) rc: 1.31
Ground state valence configuration:   2s02  2p03
Reading pseudopotential information in formatted form from N.psf

Valence configuration for pseudopotential generation:
2s( 2.00) rc: 1.48
2p( 3.00) rc: 1.48
3d( 0.00) rc: 1.48
4f( 0.00) rc: 1.48
resizes: Read basis size for species C = dzp                 
resizes: Read basis size for species O = dzp                 
resizes: Read basis size for species N = dzp                 
resizes: Read basis size for species H = szp                 
For O, standard SIESTA heuristics set lmxkb to 3
 (one more than the basis l, including polarization orbitals).
Use PS.lmax or PS.KBprojectors blocks to override.
For C, standard SIESTA heuristics set lmxkb to 3
 (one more than the basis l, including polarization orbitals).
Use PS.lmax or PS.KBprojectors blocks to override.
For H, standard SIESTA heuristics set lmxkb to 2
 (one more than the basis l, including polarization orbitals).
Use PS.lmax or PS.KBprojectors blocks to override.
For N, standard SIESTA heuristics set lmxkb to 3
 (one more than the basis l, including polarization orbitals).
Use PS.lmax or PS.KBprojectors blocks to override.

<basis_specs>
===============================================================================
O                    Z=   8    Mass=  16.000        Charge= 0.17977+309
Lmxo=1 Lmxkb= 3    BasisType=split      Semic=F
L=0  Nsemic=0  Cnfigmx=2
          i=1  nzeta=2  polorb=0  (2s)
            splnorm:   0.15000    
               vcte:    0.0000    
               rinn:    0.0000    
               qcoe:    0.0000    
               qyuk:    0.0000    
               qwid:   0.10000E-01
                rcs:    0.0000      0.0000    
            lambdas:    1.0000      1.0000    
L=1  Nsemic=0  Cnfigmx=2
          i=1  nzeta=2  polorb=1  (2p)
            splnorm:   0.15000    
               vcte:    0.0000    
               rinn:    0.0000    
               qcoe:    0.0000    
               qyuk:    0.0000    
               qwid:   0.10000E-01
                rcs:    0.0000      0.0000    
            lambdas:    1.0000      1.0000    
-------------------------------------------------------------------------------
L=0  Nkbl=1  erefs: 0.17977+309
L=1  Nkbl=1  erefs: 0.17977+309
L=2  Nkbl=1  erefs: 0.17977+309
L=3  Nkbl=1  erefs: 0.17977+309
===============================================================================
</basis_specs>

atom: Called for O                     (Z =   8)

read_vps: Pseudopotential generation method:
read_vps: ATM3      Troullier-Martins                       
Valence charge for ps generation:    6.00000

read_vps: Pseudopotential includes a core correction:
read_vps: Pseudo-core for xc-correction

xc_check: Exchange-correlation functional:
xc_check: GGA Perdew, Burke & Ernzerhof 1996
V l=0 = -2*Zval/r beyond r=  1.4482
V l=1 = -2*Zval/r beyond r=  1.4482
V l=2 = -2*Zval/r beyond r=  1.4482
V l=3 = -2*Zval/r beyond r=  1.4482
All V_l potentials equal beyond r=  1.4482
This should be close to max(r_c) in ps generation
All pots = -2*Zval/r beyond r=  1.4482

VLOCAL1: 99.0% of the norm of Vloc inside     20.696 Ry
VLOCAL1: 99.9% of the norm of Vloc inside     47.167 Ry
atom: Maximum radius for 4*pi*r*r*local-pseudopot. charge    1.74697
atom: Maximum radius for r*vlocal+2*Zval:    1.52250
GHOST: No ghost state for L =  0
GHOST: No ghost state for L =  1
GHOST: No ghost state for L =  2
GHOST: No ghost state for L =  3

KBgen: Kleinman-Bylander projectors: 
   l= 0   rc=  1.620715   el= -1.757696   Ekb=  4.880948   kbcos=  0.293490
   l= 1   rc=  1.600578   el= -0.664256   Ekb= -6.909822   kbcos= -0.499892
   l= 2   rc=  1.703827   el=  0.002031   Ekb= -1.539219   kbcos= -0.006778
   l= 3   rc=  1.746967   el=  0.003153   Ekb= -0.568983   kbcos= -0.000967

KBgen: Total number of Kleinman-Bylander projectors:   16
atom: -------------------------------------------------------------------------

atom: SANKEY-TYPE ORBITALS:
atom: Selected multiple-zeta basis: split     

SPLIT: Orbitals with angular momentum L= 0

SPLIT: Basis orbitals for state 2s

SPLIT: PAO cut-off radius determined from an
SPLIT: energy shift=  0.020000 Ry

   izeta = 1
                 lambda =    1.000000
                     rc =    3.305093
                 energy =   -1.740009
                kinetic =    1.602198
    potential(screened) =   -3.342207
       potential(ionic) =  -11.287121

   izeta = 2
                 rmatch =    2.510382
              splitnorm =    0.150000
                 energy =   -1.483129
                kinetic =    2.419988
    potential(screened) =   -3.903117
       potential(ionic) =  -12.432204

SPLIT: Orbitals with angular momentum L= 1

SPLIT: Basis orbitals for state 2p

SPLIT: PAO cut-off radius determined from an
SPLIT: energy shift=  0.020000 Ry

   izeta = 1
                 lambda =    1.000000
                     rc =    3.937239
                 energy =   -0.646301
                kinetic =    4.684247
    potential(screened) =   -5.330548
       potential(ionic) =  -13.029785

   izeta = 2
                 rmatch =    2.541963
              splitnorm =    0.150000
                 energy =   -0.369342
                kinetic =    6.896892
    potential(screened) =   -7.266234
       potential(ionic) =  -15.802088

POLgen: Perturbative polarization orbital with L=  2

POLgen: Polarization orbital for state 2p

   izeta = 1
                     rc =    3.937239
                 energy =    2.419602
                kinetic =    4.834162
    potential(screened) =   -2.414561
       potential(ionic) =   -8.756379
atom: Total number of Sankey-type orbitals: 13

atm_pop: Valence configuration (for local Pseudopot. screening):
 2s( 2.00)                                                            
 2p( 4.00)                                                            
Vna: chval, zval:    6.00000   6.00000

Vna:  Cut-off radius for the neutral-atom potential:   3.937239
comcore: Pseudo-core radius Rcore=  1.377587

atom: _________________________________________________________________________

<basis_specs>
===============================================================================
C                    Z=   6    Mass=  12.010        Charge= 0.17977+309
Lmxo=1 Lmxkb= 3    BasisType=split      Semic=F
L=0  Nsemic=0  Cnfigmx=2
          i=1  nzeta=2  polorb=0  (2s)
            splnorm:   0.15000    
               vcte:    0.0000    
               rinn:    0.0000    
               qcoe:    0.0000    
               qyuk:    0.0000    
               qwid:   0.10000E-01
                rcs:    0.0000      0.0000    
            lambdas:    1.0000      1.0000    
L=1  Nsemic=0  Cnfigmx=2
          i=1  nzeta=2  polorb=1  (2p)
            splnorm:   0.15000    
               vcte:    0.0000    
               rinn:    0.0000    
               qcoe:    0.0000    
               qyuk:    0.0000    
               qwid:   0.10000E-01
                rcs:    0.0000      0.0000    
            lambdas:    1.0000      1.0000    
-------------------------------------------------------------------------------
L=0  Nkbl=1  erefs: 0.17977+309
L=1  Nkbl=1  erefs: 0.17977+309
L=2  Nkbl=1  erefs: 0.17977+309
L=3  Nkbl=1  erefs: 0.17977+309
===============================================================================
</basis_specs>

atom: Called for C                     (Z =   6)

read_vps: Pseudopotential generation method:
read_vps: ATM3      Troullier-Martins                       
Valence charge for ps generation:    4.00000

read_vps: Pseudopotential includes a core correction:
read_vps: Pseudo-core for xc-correction

xc_check: Exchange-correlation functional:
xc_check: GGA Perdew, Burke & Ernzerhof 1996
V l=0 = -2*Zval/r beyond r=  1.5227
V l=1 = -2*Zval/r beyond r=  1.5227
V l=2 = -2*Zval/r beyond r=  1.5227
V l=3 = -2*Zval/r beyond r=  1.5038
All V_l potentials equal beyond r=  1.5227
This should be close to max(r_c) in ps generation
All pots = -2*Zval/r beyond r=  1.5227

VLOCAL1: 99.0% of the norm of Vloc inside     18.722 Ry
VLOCAL1: 99.9% of the norm of Vloc inside     42.668 Ry
atom: Maximum radius for 4*pi*r*r*local-pseudopot. charge    1.83678
atom: Maximum radius for r*vlocal+2*Zval:    1.58088
GHOST: No ghost state for L =  0
GHOST: No ghost state for L =  1
GHOST: No ghost state for L =  2
GHOST: No ghost state for L =  3

KBgen: Kleinman-Bylander projectors: 
   l= 0   rc=  1.704034   el= -1.009801   Ekb=  5.335044   kbcos=  0.316824
   l= 1   rc=  1.704034   el= -0.388707   Ekb= -3.785862   kbcos= -0.366464
   l= 2   rc=  1.791422   el=  0.001971   Ekb= -0.970471   kbcos= -0.009212
   l= 3   rc=  1.859892   el=  0.003065   Ekb= -0.399525   kbcos= -0.001223

KBgen: Total number of Kleinman-Bylander projectors:   16
atom: -------------------------------------------------------------------------

atom: SANKEY-TYPE ORBITALS:
atom: Selected multiple-zeta basis: split     

SPLIT: Orbitals with angular momentum L= 0

SPLIT: Basis orbitals for state 2s

SPLIT: PAO cut-off radius determined from an
SPLIT: energy shift=  0.020000 Ry

   izeta = 1
                 lambda =    1.000000
                     rc =    4.088342
                 energy =   -0.989105
                kinetic =    0.904439
    potential(screened) =   -1.893544
       potential(ionic) =   -5.484581

   izeta = 2
                 rmatch =    3.347176
              splitnorm =    0.150000
                 energy =   -0.835603
                kinetic =    1.364067
    potential(screened) =   -2.199670
       potential(ionic) =   -6.017020

SPLIT: Orbitals with angular momentum L= 1

SPLIT: Basis orbitals for state 2p

SPLIT: PAO cut-off radius determined from an
SPLIT: energy shift=  0.020000 Ry

   izeta = 1
                 lambda =    1.000000
                     rc =    4.870301
                 energy =   -0.368906
                kinetic =    2.520369
    potential(screened) =   -2.889275
       potential(ionic) =   -6.370528

   izeta = 2
                 rmatch =    3.475094
              splitnorm =    0.150000
                 energy =   -0.205913
                kinetic =    3.767535
    potential(screened) =   -3.973448
       potential(ionic) =   -7.809680

POLgen: Perturbative polarization orbital with L=  2

POLgen: Polarization orbital for state 2p

   izeta = 1
                     rc =    4.870301
                 energy =    1.296434
                kinetic =    2.645086
    potential(screened) =   -1.348652
       potential(ionic) =   -4.303965
atom: Total number of Sankey-type orbitals: 13

atm_pop: Valence configuration (for local Pseudopot. screening):
 2s( 2.00)                                                            
 2p( 2.00)                                                            
Vna: chval, zval:    4.00000   4.00000

Vna:  Cut-off radius for the neutral-atom potential:   4.870301
comcore: Pseudo-core radius Rcore=  1.791422

atom: _________________________________________________________________________

<basis_specs>
===============================================================================
H                    Z=   1    Mass=  1.0100        Charge= 0.17977+309
Lmxo=0 Lmxkb= 2    BasisType=split      Semic=F
L=0  Nsemic=0  Cnfigmx=1
          i=1  nzeta=1  polorb=1  (1s)
            splnorm:   0.15000    
               vcte:    0.0000    
               rinn:    0.0000    
               qcoe:    0.0000    
               qyuk:    0.0000    
               qwid:   0.10000E-01
                rcs:    0.0000    
            lambdas:    1.0000    
-------------------------------------------------------------------------------
L=0  Nkbl=1  erefs: 0.17977+309
L=1  Nkbl=1  erefs: 0.17977+309
L=2  Nkbl=1  erefs: 0.17977+309
===============================================================================
</basis_specs>

atom: Called for H                     (Z =   1)

read_vps: Pseudopotential generation method:
read_vps: ATM3      Troullier-Martins                       
Valence charge for ps generation:    1.00000

xc_check: Exchange-correlation functional:
xc_check: GGA Perdew, Burke & Ernzerhof 1996
V l=0 = -2*Zval/r beyond r=  1.2977
V l=1 = -2*Zval/r beyond r=  1.2815
V l=2 = -2*Zval/r beyond r=  1.2656
All V_l potentials equal beyond r=  1.2977
This should be close to max(r_c) in ps generation
All pots = -2*Zval/r beyond r=  1.2977

VLOCAL1: 99.0% of the norm of Vloc inside     25.776 Ry
VLOCAL1: 99.9% of the norm of Vloc inside     58.745 Ry
atom: Maximum radius for 4*pi*r*r*local-pseudopot. charge    1.52711
atom: Maximum radius for r*vlocal+2*Zval:    1.28155
GHOST: No ghost state for L =  0
GHOST: No ghost state for L =  1
GHOST: No ghost state for L =  2

KBgen: Kleinman-Bylander projectors: 
   l= 0   rc=  1.434438   el= -0.477200   Ekb= -1.957043   kbcos= -0.361614
   l= 1   rc=  1.508111   el=  0.001076   Ekb= -0.424224   kbcos= -0.025441
   l= 2   rc=  1.527112   el=  0.002010   Ekb= -0.378578   kbcos= -0.002010

KBgen: Total number of Kleinman-Bylander projectors:    9
atom: -------------------------------------------------------------------------

atom: SANKEY-TYPE ORBITALS:

SPLIT: Orbitals with angular momentum L= 0

SPLIT: Basis orbitals for state 1s

SPLIT: PAO cut-off radius determined from an
SPLIT: energy shift=  0.020000 Ry

   izeta = 1
                 lambda =    1.000000
                     rc =    4.708991
                 energy =   -0.457754
                kinetic =    0.977134
    potential(screened) =   -1.434888
       potential(ionic) =   -1.963073

POLgen: Perturbative polarization orbital with L=  1

POLgen: Polarization orbital for state 1s

   izeta = 1
                     rc =    4.708991
                 energy =    0.764959
                kinetic =    1.478379
    potential(screened) =   -0.713420
       potential(ionic) =   -1.205754
atom: Total number of Sankey-type orbitals:  4

atm_pop: Valence configuration (for local Pseudopot. screening):
 1s( 1.00)                                                            
Vna: chval, zval:    1.00000   1.00000

Vna:  Cut-off radius for the neutral-atom potential:   4.708991

atom: _________________________________________________________________________

<basis_specs>
===============================================================================
N                    Z=   7    Mass=  14.010        Charge= 0.17977+309
Lmxo=1 Lmxkb= 3    BasisType=split      Semic=F
L=0  Nsemic=0  Cnfigmx=2
          i=1  nzeta=2  polorb=0  (2s)
            splnorm:   0.15000    
               vcte:    0.0000    
               rinn:    0.0000    
               qcoe:    0.0000    
               qyuk:    0.0000    
               qwid:   0.10000E-01
                rcs:    0.0000      0.0000    
            lambdas:    1.0000      1.0000    
L=1  Nsemic=0  Cnfigmx=2
          i=1  nzeta=2  polorb=1  (2p)
            splnorm:   0.15000    
               vcte:    0.0000    
               rinn:    0.0000    
               qcoe:    0.0000    
               qyuk:    0.0000    
               qwid:   0.10000E-01
                rcs:    0.0000      0.0000    
            lambdas:    1.0000      1.0000    
-------------------------------------------------------------------------------
L=0  Nkbl=1  erefs: 0.17977+309
L=1  Nkbl=1  erefs: 0.17977+309
L=2  Nkbl=1  erefs: 0.17977+309
L=3  Nkbl=1  erefs: 0.17977+309
===============================================================================
</basis_specs>

atom: Called for N                     (Z =   7)

read_vps: Pseudopotential generation method:
read_vps: ATM3      Troullier-Martins                       
Valence charge for ps generation:    5.00000

read_vps: Pseudopotential includes a core correction:
read_vps: Pseudo-core for xc-correction

xc_check: Exchange-correlation functional:
xc_check: GGA Perdew, Burke & Ernzerhof 1996
V l=0 = -2*Zval/r beyond r=  1.4606
V l=1 = -2*Zval/r beyond r=  1.4606
V l=2 = -2*Zval/r beyond r=  1.4606
V l=3 = -2*Zval/r beyond r=  1.4606
All V_l potentials equal beyond r=  1.4606
This should be close to max(r_c) in ps generation
All pots = -2*Zval/r beyond r=  1.4606

VLOCAL1: 99.0% of the norm of Vloc inside     20.347 Ry
VLOCAL1: 99.9% of the norm of Vloc inside     46.372 Ry
atom: Maximum radius for 4*pi*r*r*local-pseudopot. charge    1.76189
atom: Maximum radius for r*vlocal+2*Zval:    1.53550
GHOST: No ghost state for L =  0
GHOST: No ghost state for L =  1
GHOST: No ghost state for L =  2
GHOST: No ghost state for L =  3

KBgen: Kleinman-Bylander projectors: 
   l= 0   rc=  1.634559   el= -1.363963   Ekb=  5.296955   kbcos=  0.335621
   l= 1   rc=  1.614250   el= -0.521451   Ekb= -5.259161   kbcos= -0.433408
   l= 2   rc=  1.718383   el=  0.001991   Ekb= -1.271464   kbcos= -0.007566
   l= 3   rc=  1.761893   el=  0.003093   Ekb= -0.494769   kbcos= -0.001015

KBgen: Total number of Kleinman-Bylander projectors:   16
atom: -------------------------------------------------------------------------

atom: SANKEY-TYPE ORBITALS:
atom: Selected multiple-zeta basis: split     

SPLIT: Orbitals with angular momentum L= 0

SPLIT: Basis orbitals for state 2s

SPLIT: PAO cut-off radius determined from an
SPLIT: energy shift=  0.020000 Ry

   izeta = 1
                 lambda =    1.000000
                     rc =    3.683980
                 energy =   -1.346493
                kinetic =    1.217702
    potential(screened) =   -2.564196
       potential(ionic) =   -8.121417

   izeta = 2
                 rmatch =    2.869008
              splitnorm =    0.150000
                 energy =   -1.143688
                kinetic =    1.842239
    potential(screened) =   -2.985927
       potential(ionic) =   -8.929748

SPLIT: Orbitals with angular momentum L= 1

SPLIT: Basis orbitals for state 2p

SPLIT: PAO cut-off radius determined from an
SPLIT: energy shift=  0.020000 Ry

   izeta = 1
                 lambda =    1.000000
                     rc =    4.280232
                 energy =   -0.501066
                kinetic =    3.581781
    potential(screened) =   -4.082847
       potential(ionic) =   -9.491389

   izeta = 2
                 rmatch =    2.905100
              splitnorm =    0.150000
                 energy =   -0.269325
                kinetic =    5.375034
    potential(screened) =   -5.644358
       potential(ionic) =  -11.640447

POLgen: Perturbative polarization orbital with L=  2

POLgen: Polarization orbital for state 2p

   izeta = 1
                     rc =    4.280232
                 energy =    1.846098
                kinetic =    3.706851
    potential(screened) =   -1.860753
       potential(ionic) =   -6.377604
atom: Total number of Sankey-type orbitals: 13

atm_pop: Valence configuration (for local Pseudopot. screening):
 2s( 2.00)                                                            
 2p( 3.00)                                                            
Vna: chval, zval:    5.00000   5.00000

Vna:  Cut-off radius for the neutral-atom potential:   4.280232
comcore: Pseudo-core radius Rcore=  1.554824

atom: _________________________________________________________________________

prinput: Basis input ----------------------------------------------------------

PAO.BasisType split     

%block ChemicalSpeciesLabel
    1    8 O                       # Species index, atomic number, species label
    2    6 C                       # Species index, atomic number, species label
    3    1 H                       # Species index, atomic number, species label
    4    7 N                       # Species index, atomic number, species label
%endblock ChemicalSpeciesLabel

%block PAO.Basis                 # Define Basis set
O                     2                    # Species label, number of l-shells
 n=2   0   2                         # n, l, Nzeta 
   3.305      2.510   
   1.000      1.000   
 n=2   1   2 P   1                   # n, l, Nzeta, Polarization, NzetaPol
   3.937      2.542   
   1.000      1.000   
C                     2                    # Species label, number of l-shells
 n=2   0   2                         # n, l, Nzeta 
   4.088      3.347   
   1.000      1.000   
 n=2   1   2 P   1                   # n, l, Nzeta, Polarization, NzetaPol
   4.870      3.475   
   1.000      1.000   
H                     1                    # Species label, number of l-shells
 n=1   0   1 P   1                   # n, l, Nzeta, Polarization, NzetaPol
   4.709   
   1.000   
N                     2                    # Species label, number of l-shells
 n=2   0   2                         # n, l, Nzeta 
   3.684      2.869   
   1.000      1.000   
 n=2   1   2 P   1                   # n, l, Nzeta, Polarization, NzetaPol
   4.280      2.905   
   1.000      1.000   
%endblock PAO.Basis

prinput: ----------------------------------------------------------------------

Dumping basis to NetCDF file O.ion.nc
Dumping basis to NetCDF file C.ion.nc
Dumping basis to NetCDF file H.ion.nc
Dumping basis to NetCDF file N.ion.nc
coor:   Atomic-coordinates input format  =     Cartesian coordinates
coor:                                          (in Angstroms)

ioxv: Reading coordinates and velocities from file
! Info in XV file prevails over previous structure input
WARNING: CO+NH3.VERLET_RESTART not found--reading only XV file and moving back 1 time step using Euler

siesta: Atomic coordinates (Bohr) and species
siesta:      0.00000   0.00000   0.00000  4        1
siesta:      0.00000  -0.93770  -0.38160  3        2
siesta:      0.81210   0.46890  -0.38160  3        3
siesta:     -0.81210   0.46890  -0.38160  3        4
siesta:      0.00000   0.00000   2.50000  2        5
siesta:      0.00000   0.00000   3.62000  1        6

siesta: System type = molecule  

initatomlists: Number of atoms, orbitals, and projectors:      6    51    75

coxmol: Writing XMOL coordinates into file CO+NH3.xyz                                                          

siesta: ******************** Simulation parameters ****************************
siesta:
siesta: The following are some of the parameters of the simulation.
siesta: A complete list of the parameters used, including default values,
siesta: can be found in file out.fdf
siesta:
redata: Spin configuration                          = none
redata: Number of spin components                   = 1
redata: Time-Reversal Symmetry                      = T
redata: Spin spiral                                 = F
redata: Long output                                 =   F
redata: Number of Atomic Species                    =        4
redata: Charge density info will appear in .RHO file
redata: Write Mulliken Pop.                         = NO
redata: Matel table size (NRTAB)                    =     1024
redata: Mesh Cutoff                                 =   200.0000 Ry
redata: Net charge of the system                    =     0.0000 |e|
redata: Min. number of SCF Iter                     =        0
redata: Max. number of SCF Iter                     =      150
redata: SCF convergence failure will abort job
redata: SCF mix quantity                            = Hamiltonian
redata: Mix DM or H after convergence               =   F
redata: Recompute H after scf cycle                 =   F
redata: Mix DM in first SCF step                    =   T
redata: Write Pulay info on disk                    =   F
redata: New DM Occupancy tolerance                  = 0.000000000001
redata: No kicks to SCF
redata: DM Mixing Weight for Kicks                  =     0.5000
redata: Require Harris convergence for SCF          =   F
redata: Harris energy tolerance for SCF             =     0.000100 eV
redata: Require DM convergence for SCF              =   T
redata: DM tolerance for SCF                        =     0.000300
redata: Require EDM convergence for SCF             =   F
redata: EDM tolerance for SCF                       =     0.001000 eV
redata: Require H convergence for SCF               =   T
redata: Hamiltonian tolerance for SCF               =     0.001000 eV
redata: Require (free) Energy convergence for SCF   =   F
redata: (free) Energy tolerance for SCF             =     0.000100 eV
redata: Using Saved Data (generic)                  =   F
redata: Use continuation files for DM               =   F
redata: Neglect nonoverlap interactions             =   F
redata: Method of Calculation                       = Diagonalization
redata: Electronic Temperature                      =   290.1109 K
redata: Fix the spin of the system                  =   F
redata: Dynamics option                             = Verlet MD run
redata: Initial MD time step                        =        1
redata:   Final MD time step                        =      100
redata: Length of MD time step                      =     1.0000 fs
redata: Initial Temperature of MD run               =     0.0000 K
redata: Perform a MD quench                         =   F
mix.SCF: Pulay mixing                            = Pulay
mix.SCF:    Variant                              = stable
mix.SCF:    History steps                        = 6
mix.SCF:    Linear mixing weight                 =     0.020000
mix.SCF:    Mixing weight                        =     0.020000
mix.SCF:    SVD condition                        = 0.1000E-07
redata: Save all siesta data in one NC              =   F
redata: ***********************************************************************

%block SCF.Mixers
  Pulay
%endblock SCF.Mixers

%block SCF.Mixer.Pulay
  # Mixing method
  method pulay
  variant stable

  # Mixing options
  weight 0.0200
  weight.linear 0.0200
  history 6
%endblock SCF.Mixer.Pulay

Size of DM history Fstack: 1
Total number of electrons:    18.000000
Total ionic charge:    18.000000

* ProcessorY, Blocksize:    1  24


* Orbital distribution balance (max,min):    51    51

 Kpoints in:            1 . Kpoints trimmed:            1

siesta: k-grid: Number of k-points =     1
siesta: k-grid: Cutoff (effective) =     3.969 Ang
siesta: k-grid: Supercell and displacements
siesta: k-grid:    1   0   0      0.000
siesta: k-grid:    0   1   0      0.000
siesta: k-grid:    0   0   1      0.000

diag: Algorithm                                     = D&C
diag: Parallel over k                               =   F
diag: Use parallel 2D distribution                  =   F
diag: Parallel block-size                           = 24
diag: Parallel distribution                         =     1 x     1
diag: Used triangular part                          = Lower
diag: Absolute tolerance                            =  0.100E-15
diag: Orthogonalization factor                      =  0.100E-05
diag: Memory factor                                 =  1.0000


ts: **************************************************************
ts: Save H and S matrices                           =    F
ts: Save DM and EDM matrices                        =    F
ts: Only save the overlap matrix S                  =    F
ts: **************************************************************

************************ Begin: TS CHECKS AND WARNINGS ************************
************************ End: TS CHECKS AND WARNINGS **************************


                     ====================================
                        Begin MD step =      1
                     ====================================

outcell: Unit cell vectors (Ang):
        7.937655    0.000000    0.000000
        0.000000    7.937655    0.000000
        0.000000    0.000000    7.937655

outcell: Cell vector modules (Ang)   :    7.937655    7.937655    7.937655
outcell: Cell angles (23,13,12) (deg):     90.0000     90.0000     90.0000
outcell: Cell volume (Ang**3)        :    500.1228
<dSpData1D:S at geom step 1
  <sparsity:sparsity for geom step 1
    nrows_g=51 nrows=51 sparsity=1.0000 nnzs=2601, refcount: 7>
  <dData1D:(new from dSpData1D) n=2601, refcount: 1>
refcount: 1>
new_DM -- step:     1
Initializing Density Matrix...
DM filled with atomic data:
<dSpData2D:DM initialized from atoms
  <sparsity:sparsity for geom step 1
    nrows_g=51 nrows=51 sparsity=1.0000 nnzs=2601, refcount: 8>
  <dData2D:DM n=2601 m=1, refcount: 1>
refcount: 1>
No. of atoms with KB's overlaping orbs in proc 0. Max # of overlaps:       6      51
New grid distribution:   1
           1       1:   36    1:   36    1:   36

InitMesh: MESH =    72 x    72 x    72 =      373248
InitMesh: (bp) =    36 x    36 x    36 =       46656
InitMesh: Mesh cutoff (required, used) =   200.000   227.396 Ry
ExtMesh (bp) on 0 =    84 x    84 x    84 =      592704
PhiOnMesh: Number of (b)points on node 0 =                46656
PhiOnMesh: nlist on node 0 =               243117

stepf: Fermi-Dirac step function

siesta: Program's energy decomposition (eV):
siesta: Ebs     =      -148.886458
siesta: Eions   =      1332.829847
siesta: Ena     =       340.987475
siesta: Ekin    =      1038.917062
siesta: Enl     =      -320.747547
siesta: Eso     =         0.000000
siesta: Edftu   =         0.000000
siesta: DEna    =      -186.609687
siesta: DUscf   =        41.443596
siesta: DUext   =         0.000000
siesta: Exc     =      -350.636349
siesta: eta*DQ  =         0.000000
siesta: Emadel  =         0.000000
siesta: Emeta   =         0.000000
siesta: Emolmec =         0.000000
siesta: Ekinion =         0.000000
siesta: Eharris =      -711.182660
siesta: Etot    =      -769.475297
siesta: FreeEng =      -769.475297

        iscf     Eharris(eV)        E_KS(eV)     FreeEng(eV)     dDmax    Ef(eV) dHmax(eV)
   scf:    1     -711.182660     -769.475297     -769.475297  1.828490 -0.358451 24.622496
timer: Routine,Calls,Time,% = IterSCF        1       1.828   9.47
   scf:    2     -770.870320     -770.174982     -770.174982  0.040217  0.053648 23.820991
   scf:    3     -784.289700     -781.417450     -781.417450  2.546690  7.823081  4.685096
   scf:    4     -773.880336     -778.080163     -778.080170  0.785884  9.186712 12.774018
   scf:    5     -777.457975     -777.770840     -777.770849  0.034596  9.270664 13.190602
   scf:    6     -782.530308     -781.990251     -781.990251  1.619074  6.202756  2.650571
   scf:    7     -781.116063     -781.847478     -781.847478  0.795345  7.466557  4.159795
   scf:    8     -782.317746     -782.200657     -782.200657  0.435718  6.483112  0.380443
   scf:    9     -782.207150     -782.204681     -782.204681  0.039611  6.596839  0.048084
   scf:   10     -782.204907     -782.204840     -782.204840  0.012497  6.577055  0.063730
   scf:   11     -782.205028     -782.204959     -782.204959  0.005699  6.596762  0.011139
   scf:   12     -782.204948     -782.204958     -782.204958  0.003788  6.601778  0.016028
   scf:   13     -782.204972     -782.204967     -782.204967  0.000537  6.595690  0.001641
   scf:   14     -782.204967     -782.204967     -782.204967  0.000082  6.595473  0.001966
   scf:   15     -782.204968     -782.204967     -782.204967  0.002015  6.594918  0.000231
   scf:   16     -782.204967     -782.204967     -782.204967  0.000007  6.594916  0.000229

SCF Convergence by DM+H criterion
max |DM_out - DM_in|         :     0.0000071340
max |H_out - H_in|      (eV) :     0.0002294484
SCF cycle converged after 16 iterations

Using DM_out to compute the final energy and forces
No. of atoms with KB's overlaping orbs in proc 0. Max # of overlaps:       6      51

siesta: E_KS(eV) =             -782.2050

siesta: E_KS - E_eggbox =      -782.2050

siesta: Atomic forces (eV/Ang):
----------------------------------------
   Tot    0.000000    0.029057   -0.049472
----------------------------------------
   Max  586.112658
   Res  198.334072    sqrt( Sum f_i^2 / 3N )
----------------------------------------
   Max  586.112658    constrained

Stress tensor Voigt[x,y,z,yz,xz,xy] (kbar):     -293.82     -293.86    -2014.72       -0.00       -0.00        0.00
(Free)E + p*V (eV/cell)     -511.4273
Target enthalpy (eV/cell)     -782.2050

siesta: Stress tensor (static) (eV/Ang**3):
        -0.183384    0.000000    0.000000
         0.000000   -0.183408   -0.000002
        -0.000000   -0.000002   -0.851113

siesta: Pressure (static):        650.44010354  kBar

siesta: Stress tensor (total) (eV/Ang**3):
        -0.183384    0.000000    0.000000
         0.000000   -0.183408   -0.000002
        -0.000000   -0.000002   -1.257475

siesta: Pressure (total):        867.46373067  kBar

siesta: Temp_ion =  158374.690 K

                     ====================================
                        Begin MD step =      2
                     ====================================

outcell: Unit cell vectors (Ang):
        7.937655    0.000000    0.000000
        0.000000    7.937655    0.000000
        0.000000    0.000000    7.937655

outcell: Cell vector modules (Ang)   :    7.937655    7.937655    7.937655
outcell: Cell angles (23,13,12) (deg):     90.0000     90.0000     90.0000
outcell: Cell volume (Ang**3)        :    500.1228
<dSpData1D:S at geom step 2
  <sparsity:sparsity for geom step 2
    nrows_g=51 nrows=51 sparsity=1.0000 nnzs=2601, refcount: 7>
  <dData1D:(new from dSpData1D) n=2601, refcount: 1>
refcount: 1>
new_DM -- step:     2
Re-using DM from previous geometries...
Number of DMs in history: 1
 DM extrapolation coefficients: 
1   1.00000
New DM after history re-use:
<dSpData2D:SpM extrapolated using coords
  <sparsity:sparsity for geom step 2
    nrows_g=51 nrows=51 sparsity=1.0000 nnzs=2601, refcount: 9>
  <dData2D:(temp array for extrapolation) n=2601 m=1, refcount: 1>
refcount: 1>
Note: For starting DM, Qtot, Tr[D*S] =         18.00000000         20.05654715
No. of atoms with KB's overlaping orbs in proc 0. Max # of overlaps:       6      51
New grid distribution:   1
           1       1:   36    1:   36    1:   36

InitMesh: MESH =    72 x    72 x    72 =      373248
InitMesh: (bp) =    36 x    36 x    36 =       46656
InitMesh: Mesh cutoff (required, used) =   200.000   227.396 Ry
ExtMesh (bp) on 0 =    84 x    84 x    84 =      592704
PhiOnMesh: Number of (b)points on node 0 =                46656
PhiOnMesh: nlist on node 0 =               243122

        iscf     Eharris(eV)        E_KS(eV)     FreeEng(eV)     dDmax    Ef(eV) dHmax(eV)
   scf:    1     -880.933545     -887.677026     -887.746266  3.524576  0.966187 19.388666
   scf:    2     -349.856305     -719.950112     -719.995978  1.243490 -3.383853 66.657877
   scf:    3     -909.415424     -898.157857     -898.225526  1.149897 -0.310014  7.840828
   scf:    4     -899.777964     -900.096023     -900.164767  0.170045 -1.246503  5.363513
   scf:    5     -900.195005     -900.176835     -900.245677  0.129594 -1.278291  4.966889
   scf:    6     -900.676118     -900.441225     -900.509967  0.049200 -1.367990  3.292706
   scf:    7     -900.689578     -900.654245     -900.723557  0.111916 -1.582010  1.013412
   scf:    8     -900.685447     -900.675141     -900.744404  0.021711 -1.627000  0.349962
   scf:    9     -900.647101     -900.670310     -900.739563  0.040963 -1.553928  0.720895
   scf:   10     -900.671979     -900.671155     -900.740417  0.001401 -1.557800  0.691194
   scf:   11     -900.683501     -900.681016     -900.750331  0.021826 -1.581473  0.021274
   scf:   12     -900.681028     -900.681024     -900.750339  0.000336 -1.581171  0.005732
   scf:   13     -900.681027     -900.681026     -900.750340  0.000316 -1.580403  0.005323
   scf:   14     -900.681028     -900.681027     -900.750341  0.000242 -1.579771  0.004487
   scf:   15     -900.681029     -900.681028     -900.750343  0.000193 -1.579291  0.005077
   scf:   16     -900.681028     -900.681028     -900.750343  0.000049 -1.579233  0.005079
   scf:   17     -900.681029     -900.681029     -900.750343  0.000062 -1.578912  0.003962
   scf:   18     -900.681029     -900.681029     -900.750343  0.000015 -1.578870  0.003564
   scf:   19     -900.681030     -900.681029     -900.750344  0.000115 -1.578878  0.000722

SCF Convergence by DM+H criterion
max |DM_out - DM_in|         :     0.0001154714
max |H_out - H_in|      (eV) :     0.0007220425
SCF cycle converged after 19 iterations

Using DM_out to compute the final energy and forces
No. of atoms with KB's overlaping orbs in proc 0. Max # of overlaps:       6      51

siesta: E_KS(eV) =             -900.6810

siesta: Atomic forces (eV/Ang):
----------------------------------------
   Tot    0.000000    0.000141   -0.145515
----------------------------------------
   Max  152.660605
   Res   46.935084    sqrt( Sum f_i^2 / 3N )
----------------------------------------
   Max  152.660605    constrained

Stress tensor Voigt[x,y,z,yz,xz,xy] (kbar):      -14.36      -14.39    -1211.16       -0.03        0.00       -0.00
(Free)E + p*V (eV/cell)     -771.7375
Target enthalpy (eV/cell)     -900.7503

siesta: Stress tensor (static) (eV/Ang**3):
        -0.008965   -0.000000    0.000000
        -0.000000   -0.008984   -0.000016
         0.000000   -0.000016   -0.349575

siesta: Pressure (static):        196.28195856  kBar

siesta: Stress tensor (total) (eV/Ang**3):
        -0.008965   -0.000000    0.000000
        -0.000000   -0.008984   -0.000016
         0.000000   -0.000016   -0.755938

siesta: Pressure (total):        413.30558568  kBar

siesta: Temp_ion =  293195.550 K

                     ====================================
                        Begin MD step =      3
                     ====================================

outcell: Unit cell vectors (Ang):
        7.937655    0.000000    0.000000
        0.000000    7.937655    0.000000
        0.000000    0.000000    7.937655

outcell: Cell vector modules (Ang)   :    7.937655    7.937655    7.937655
outcell: Cell angles (23,13,12) (deg):     90.0000     90.0000     90.0000
outcell: Cell volume (Ang**3)        :    500.1228
siesta: WARNING: Atoms     1     5 too close: rij =    0.484905 Ang
<dSpData1D:S at geom step 3
  <sparsity:sparsity for geom step 3
    nrows_g=51 nrows=51 sparsity=1.0000 nnzs=2601, refcount: 7>
  <dData1D:(new from dSpData1D) n=2601, refcount: 1>
refcount: 1>
new_DM -- step:     3
Re-using DM from previous geometries...
Number of DMs in history: 1
 DM extrapolation coefficients: 
1   1.00000
New DM after history re-use:
<dSpData2D:SpM extrapolated using coords
  <sparsity:sparsity for geom step 3
    nrows_g=51 nrows=51 sparsity=1.0000 nnzs=2601, refcount: 9>
  <dData2D:(temp array for extrapolation) n=2601 m=1, refcount: 1>
refcount: 1>
Note: For starting DM, Qtot, Tr[D*S] =         18.00000000         16.75044526
No. of atoms with KB's overlaping orbs in proc 0. Max # of overlaps:       6      51
New grid distribution:   1
           1       1:   36    1:   36    1:   36

InitMesh: MESH =    72 x    72 x    72 =      373248
InitMesh: (bp) =    36 x    36 x    36 =       46656
InitMesh: Mesh cutoff (required, used) =   200.000   227.396 Ry
ExtMesh (bp) on 0 =    84 x    84 x    84 =      592704
PhiOnMesh: Number of (b)points on node 0 =                46656
PhiOnMesh: nlist on node 0 =               243023

        iscf     Eharris(eV)        E_KS(eV)     FreeEng(eV)     dDmax    Ef(eV) dHmax(eV)
   scf:    1     -733.270463     -748.111510     -748.179286  1.426341 -5.819945 23.101893
   scf:    2     -588.672723     -708.837106     -708.858616  1.511323 -4.066752 45.341546
   scf:    3     -754.241407     -749.177624     -749.233446  0.901858 -5.597655 17.517251
   scf:    4     -737.269430     -743.575840     -743.639072  0.144754 -5.483379 22.295483
   scf:    5     -754.515799     -749.368662     -749.425853  0.144538 -5.580665 17.761907
   scf:    6     -750.504990     -758.389895     -758.458957  0.822625 -5.744240  5.014581
   scf:    7     -758.040206     -758.324988     -758.389524  0.177166 -5.739706  5.389116
   scf:    8     -757.887117     -758.120353     -758.181871  0.060962 -5.736131  5.654704
   scf:    9     -755.940672     -759.217656     -759.283317  0.469960 -5.746827  3.944497
   scf:   10     -758.369757     -759.616333     -759.685546  0.248338 -5.757719  2.975767
   scf:   11     -752.976163     -757.283731     -757.317741  0.495049 -5.757165  4.365584
   scf:   12     -714.103814     -746.019650     -746.081051  0.865215 -5.588990 21.603347
   scf:   13     -762.293922     -755.784731     -755.838859  0.301724 -5.738082 11.341668
   scf:   14     -752.961165     -758.710179     -758.764670  0.874356 -5.786700  3.794362
   scf:   15     -759.581593     -759.760510     -759.829457  0.447006 -5.828939  2.030848
   scf:   16     -759.978330     -759.898062     -759.967378  0.052980 -5.837593  0.831738
   scf:   17     -759.933132     -759.923778     -759.993060  0.022895 -5.836357  0.148696
   scf:   18     -759.868571     -759.902430     -759.971728  0.030268 -5.833935  0.567982
   scf:   19     -759.909938     -759.906570     -759.975805  0.023939 -5.851319  0.577239
   scf:   20     -759.923281     -759.927090     -759.996370  0.045239 -5.869353  0.200439
   scf:   21     -759.927818     -759.928081     -759.997391  0.010311 -5.868944  0.039069
   scf:   22     -759.903932     -759.920374     -759.989636  0.023248 -5.884371  0.504992
   scf:   23     -759.925832     -759.928323     -759.997638  0.033198 -5.885627  0.071645
   scf:   24     -759.928543     -759.928518     -759.997836  0.004284 -5.885683  0.011524
   scf:   25     -759.928501     -759.928515     -759.997834  0.002606 -5.886845  0.010850
   scf:   26     -759.928519     -759.928521     -759.997839  0.000712 -5.887111  0.009854
   scf:   27     -759.928526     -759.928523     -759.997842  0.000100 -5.886965  0.008624
   scf:   28     -759.928425     -759.928494     -759.997813  0.001173 -5.887494  0.033199
   scf:   29     -759.928532     -759.928531     -759.997849  0.001813 -5.887647  0.002631
   scf:   30     -759.928531     -759.928531     -759.997849  0.000042 -5.887635  0.002823
   scf:   31     -759.928533     -759.928532     -759.997851  0.000902 -5.887142  0.000555
   scf:   32     -759.928532     -759.928532     -759.997851  0.000017 -5.887159  0.000547

SCF Convergence by DM+H criterion
max |DM_out - DM_in|         :     0.0000174094
max |H_out - H_in|      (eV) :     0.0005471944
SCF cycle converged after 32 iterations

Using DM_out to compute the final energy and forces
No. of atoms with KB's overlaping orbs in proc 0. Max # of overlaps:       6      51

siesta: E_KS(eV) =             -759.9285

siesta: Atomic forces (eV/Ang):
----------------------------------------
   Tot    0.000000   -0.002711    0.119035
----------------------------------------
   Max  959.320540
   Res  319.008190    sqrt( Sum f_i^2 / 3N )
----------------------------------------
   Max  959.320540    constrained

Stress tensor Voigt[x,y,z,yz,xz,xy] (kbar):     -174.34     -174.36    -2337.64        0.03       -0.00       -0.00
(Free)E + p*V (eV/cell)     -480.4853
Target enthalpy (eV/cell)     -759.9979

siesta: Stress tensor (static) (eV/Ang**3):
         0.003318   -0.000000   -0.000000
        -0.000000    0.003309    0.000019
        -0.000000    0.000019   -0.931002

siesta: Pressure (static):        493.67566872  kBar

siesta: Stress tensor (total) (eV/Ang**3):
        -0.108814   -0.000000   -0.000000
        -0.000000   -0.108823    0.000017
        -0.000000    0.000017   -1.459026

siesta: Pressure (total):        895.44669463  kBar

siesta: Temp_ion =  288810.115 K

                     ====================================
                        Begin MD step =      4
                     ====================================

outcell: Unit cell vectors (Ang):
        7.937655    0.000000    0.000000
        0.000000    7.937655    0.000000
        0.000000    0.000000    7.937655

outcell: Cell vector modules (Ang)   :    7.937655    7.937655    7.937655
outcell: Cell angles (23,13,12) (deg):     90.0000     90.0000     90.0000
outcell: Cell volume (Ang**3)        :    500.1228
Gamma-point calculation with multiply-connected orbital pairs
Gamma-point calculation with multiply-connected orbital pairs
Folding of H and S implicitly performed
Folding of H and S implicitly performed
<dSpData1D:S at geom step 4
  <sparsity:sparsity for geom step 4
    nrows_g=51 nrows=51 sparsity=1.0000 nnzs=2601, refcount: 7>
  <dData1D:(new from dSpData1D) n=2601, refcount: 1>
refcount: 1>
new_DM -- step:     4
Re-using DM from previous geometries...
Number of DMs in history: 1
 DM extrapolation coefficients: 
1   1.00000
New DM after history re-use:
<dSpData2D:SpM extrapolated using coords
  <sparsity:sparsity for geom step 4
    nrows_g=51 nrows=51 sparsity=1.0000 nnzs=2601, refcount: 9>
  <dData2D:(temp array for extrapolation) n=2601 m=1, refcount: 1>
refcount: 1>
Note: For starting DM, Qtot, Tr[D*S] =         18.00000000         17.48861942
No. of atoms with KB's overlaping orbs in proc 0. Max # of overlaps:       6      51
New grid distribution:   1
           1       1:   36    1:   36    1:   36

InitMesh: MESH =    72 x    72 x    72 =      373248
InitMesh: (bp) =    36 x    36 x    36 =       46656
InitMesh: Mesh cutoff (required, used) =   200.000   227.396 Ry
ExtMesh (bp) on 0 =    84 x    84 x    84 =      592704
PhiOnMesh: Number of (b)points on node 0 =                46656
PhiOnMesh: nlist on node 0 =               242641

        iscf     Eharris(eV)        E_KS(eV)     FreeEng(eV)     dDmax    Ef(eV) dHmax(eV)
   scf:    1      -41.744143     -630.482748     -630.552062  1.563094 -3.987607 92.786038
   scf:    2     1672.965547     -168.409680     -168.409680  7.387847-19.773231194.640406
   scf:    3    -1230.492479     -802.031849     -802.064793  6.948291 -2.805401 60.385211
   scf:    4     -835.711538     -819.201940     -819.238530  0.093536 -2.892516 55.694153
   scf:    5     -805.897902     -812.600463     -812.634473  0.038769 -2.867312 57.537997
   scf:    6     -947.613056     -896.599543     -896.599575  0.867464 -3.143836 26.426205
   scf:    7     -917.024557     -909.124109     -909.124109  0.281866 -3.419258 16.580040
   scf:    8     -889.664272     -905.036854     -905.036875  0.279278 -4.682110 17.184344
   scf:    9     -890.972386     -899.690233     -899.690242  0.676361 -4.774989 18.440924
   scf:   10     -914.263594     -913.441281     -913.441281  0.685621 -4.734115  4.816798
   scf:   11     -913.579459     -913.512510     -913.512510  0.013901 -4.714590  4.491879
   scf:   12     -890.686034     -905.714151     -905.714151  0.431372 -3.890554 16.160083
   scf:   13     -916.101729     -911.877804     -911.877804  0.209518 -4.162679  7.802806
   scf:   14     -914.854270     -913.980239     -913.980239  0.191419 -4.310796  1.689658
   scf:   15     -911.972948     -913.478916     -913.478916  0.344409 -4.315473  3.031845
   scf:   16     -913.357181     -913.983779     -913.983779  0.384605 -4.327995  1.031777
   scf:   17     -914.145643     -914.083617     -914.083617  0.058582 -4.233057  0.673500
   scf:   18     -914.135721     -914.120671     -914.120671  0.045205 -4.262612  0.164653
   scf:   19     -914.122158     -914.122109     -914.122109  0.008905 -4.270245  0.063592
   scf:   20     -914.120556     -914.121705     -914.121705  0.009227 -4.283977  0.118961
   scf:   21     -914.122654     -914.122490     -914.122490  0.008448 -4.284067  0.027238
   scf:   22     -914.122487     -914.122494     -914.122494  0.000805 -4.284673  0.026518
   scf:   23     -914.122418     -914.122480     -914.122480  0.001630 -4.285940  0.024415
   scf:   24     -914.122573     -914.122548     -914.122548  0.000940 -4.288128  0.010386
   scf:   25     -914.122556     -914.122552     -914.122552  0.000143 -4.288212  0.009584
   scf:   26     -914.122579     -914.122568     -914.122568  0.000843 -4.289496  0.003909
   scf:   27     -914.122569     -914.122569     -914.122569  0.000023 -4.289575  0.003630
   scf:   28     -914.122572     -914.122570     -914.122570  0.000392 -4.290660  0.003598
   scf:   29     -914.122571     -914.122571     -914.122571  0.000071 -4.290737  0.003202
   scf:   30     -914.122572     -914.122572     -914.122572  0.000164 -4.291445  0.001648
   scf:   31     -914.122572     -914.122572     -914.122572  0.000007 -4.291449  0.001562
   scf:   32     -914.122572     -914.122572     -914.122572  0.000091 -4.291879  0.000833

SCF Convergence by DM+H criterion
max |DM_out - DM_in|         :     0.0000914473
max |H_out - H_in|      (eV) :     0.0008326221
SCF cycle converged after 32 iterations

Using DM_out to compute the final energy and forces
No. of atoms with KB's overlaping orbs in proc 0. Max # of overlaps:       6      51

siesta: E_KS(eV) =             -914.1226

siesta: Atomic forces (eV/Ang):
----------------------------------------
   Tot   -0.000000   -0.022642   -0.032682
----------------------------------------
   Max   94.771557
   Res   30.781579    sqrt( Sum f_i^2 / 3N )
----------------------------------------
   Max   94.771557    constrained

Stress tensor Voigt[x,y,z,yz,xz,xy] (kbar):     -165.70     -166.63    -1037.88        0.08       -0.00        0.00
(Free)E + p*V (eV/cell)     -771.5523
Target enthalpy (eV/cell)     -914.1226

siesta: Stress tensor (static) (eV/Ang**3):
         0.012540    0.000000   -0.000000
         0.000000    0.011967    0.000039
        -0.000000    0.000039   -0.138682

siesta: Pressure (static):         60.97674285  kBar

siesta: Stress tensor (total) (eV/Ang**3):
        -0.103419    0.000000   -0.000000
         0.000000   -0.104004    0.000047
        -0.000000    0.000047   -0.647789

siesta: Pressure (total):        456.73833064  kBar

siesta: Temp_ion =  804903.924 K

                     ====================================
                        Begin MD step =      5
                     ====================================

outcell: Unit cell vectors (Ang):
        7.937655    0.000000    0.000000
        0.000000    7.937655    0.000000
        0.000000    0.000000    7.937655

outcell: Cell vector modules (Ang)   :    7.937655    7.937655    7.937655
outcell: Cell angles (23,13,12) (deg):     90.0000     90.0000     90.0000
outcell: Cell volume (Ang**3)        :    500.1228
Gamma-point calculation with multiply-connected orbital pairs
Gamma-point calculation with multiply-connected orbital pairs
Folding of H and S implicitly performed
Folding of H and S implicitly performed
<dSpData1D:S at geom step 5
  <sparsity:sparsity for geom step 5
    nrows_g=51 nrows=51 sparsity=.9508 nnzs=2473, refcount: 7>
  <dData1D:(new from dSpData1D) n=2473, refcount: 1>
refcount: 1>
new_DM -- step:     5
Re-using DM from previous geometries...
Number of DMs in history: 1
 DM extrapolation coefficients: 
1   1.00000
New DM after history re-use:
<dSpData2D:SpM extrapolated using coords
  <sparsity:sparsity for geom step 5
    nrows_g=51 nrows=51 sparsity=.9508 nnzs=2473, refcount: 9>
  <dData2D:(temp array for extrapolation) n=2473 m=1, refcount: 1>
refcount: 1>
Note: For starting DM, Qtot, Tr[D*S] =         18.00000000         16.83276519
No. of atoms with KB's overlaping orbs in proc 0. Max # of overlaps:       6      38
New grid distribution:   1
           1       1:   36    1:   36    1:   36

InitMesh: MESH =    72 x    72 x    72 =      373248
InitMesh: (bp) =    36 x    36 x    36 =       46656
InitMesh: Mesh cutoff (required, used) =   200.000   227.396 Ry
ExtMesh (bp) on 0 =    84 x    84 x    84 =      592704
PhiOnMesh: Number of (b)points on node 0 =                46656
PhiOnMesh: nlist on node 0 =               242914

        iscf     Eharris(eV)        E_KS(eV)     FreeEng(eV)     dDmax    Ef(eV) dHmax(eV)
   scf:    1     -574.422685     -733.966720     -733.966720  1.517357 -6.522159 49.418918
   scf:    2       17.110596     -576.245760     -576.245760  1.982480  7.144430108.208887
   scf:    3     -877.536741     -742.486168     -742.486168  3.140060 -2.587607 51.000266
   scf:    4     -724.776663     -733.808193     -733.808193  1.049026  2.786912 62.014964
   scf:    5     -726.064187     -729.951592     -729.951592  0.246934  3.017889 65.213441
   scf:    6     -518.982987     -748.675027     -748.675027  2.560943 -4.913545 41.623358
   scf:    7     -594.780837     -678.227019     -678.227019  1.703963 -7.399977 92.190437
   scf:    8     -785.960741     -736.132214     -736.132214  1.440320 -5.097819 49.046439
   scf:    9     -686.427035     -712.226751     -712.226751  0.776439 -4.906410 66.176465
   scf:   10     -731.503745     -722.000634     -722.000634  0.293848 -4.258572 58.743759
   scf:   11        5.862195     -586.868299     -586.868299  1.998747  7.245062 97.948464
   scf:   12     -612.678933     -599.821156     -599.821156  0.307794  7.317627 93.873534
   scf:   13     -580.290530     -590.079808     -590.079808  0.239806  7.330596 96.626898
   scf:   14     -868.649737     -741.769684     -741.769684  2.980453 -0.774093 54.600473
   scf:   15     -747.426703     -744.609815     -744.609815  0.317711 -1.225031 50.692493
   scf:   16     -464.768960     -730.769999     -730.769999  1.980772 -5.797126 52.074534
   scf:   17     -538.124226     -757.283327     -757.283327  1.921699 -2.198793 39.845345
   scf:   18     -752.139379     -754.726484     -754.726484  0.052952 -2.029416 41.271403
   scf:   19     -724.487002     -739.997926     -739.997926  1.178135 -0.939789 56.587750
   scf:   20     -410.145308     -585.770901     -585.770901  3.344411  7.324750102.677851
   scf:   21     -879.879762     -747.359287     -747.359287  2.706589 -2.422315 47.049605
   scf:   22     -829.574500     -800.060194     -800.060194  1.089134 -3.993035 16.218378
   scf:   23     -544.593844     -731.461324     -731.461324  1.411966 -5.220711 54.274147
   scf:   24     -470.196400     -739.106394     -739.106394  2.075118 -1.803171 56.837938
   scf:   25     -726.870255     -733.024003     -733.024003  0.647844  3.007344 63.063904
   scf:   26     -740.824154     -736.942856     -736.942856  0.180279  1.680966 58.300585
   scf:   27     -631.957236     -686.144983     -686.144983  0.791871  6.652797 81.051671
   scf:   28     -754.297434     -720.976987     -720.976987  1.036280  5.065781 70.658231
   scf:   29     -777.002637     -749.897339     -749.897339  2.427190 -2.261980 44.850282
   scf:   30     -337.663002     -689.775702     -689.775702  1.972618 -2.593795 83.169602
   scf:   31     -720.577698     -705.413023     -705.413023  0.336224 -5.867141 71.550212
   scf:   32       29.873841     -581.477444     -581.477444  1.998126  6.943164106.355027
   scf:   33     -897.091860     -758.564202     -758.564202  2.338686 -2.424942 39.610331
   scf:   34     -723.369675     -741.527318     -741.527318  1.132738 -1.826605 53.886766
   scf:   35     -736.304550     -738.925225     -738.925225  0.266510 -1.618171 57.091856
   scf:   36     -736.854853     -737.891339     -737.891339  0.103034 -1.580873 58.279203
   scf:   37     -411.410075     -715.430797     -715.430797  2.732664 -6.340538 64.314641
   scf:   38     -716.175808     -715.803491     -715.803491  0.010742 -6.227575 63.908093
   scf:   39     -722.746654     -797.387175     -797.387175  1.634480 -3.935431 17.016945
   scf:   40     -740.310180     -773.355357     -773.355357  0.813639 -3.757947 32.218062
   scf:   41     -759.351941     -766.509453     -766.509453  0.167117 -3.884132 35.429857
   scf:   42     -801.042055     -787.988935     -787.988936  0.972464 -3.613173 22.509835
   scf:   43     -531.436658     -732.957774     -732.957774  1.851368 -5.860964 53.039449
   scf:   44     -771.773088     -753.216983     -753.216983  0.468426 -4.886908 39.001105
   scf:   45     -809.319367     -804.958182     -804.958376  1.689038 -4.378645  7.160048
   scf:   46     -807.821213     -806.798666     -806.798680  0.236751 -4.234622  5.469851
   scf:   47     -655.522544     -756.824450     -756.824451  1.696804 -4.666133 37.321501
   scf:   48     -748.066512     -752.488576     -752.488576  0.065065 -4.739920 39.486303
   scf:   49     -720.754824     -737.034813     -737.034813  0.273494 -4.844458 49.592261
   scf:   50     -508.052224     -748.516989     -748.516989  1.967451 -3.005379 45.086965
   scf:   51     -824.028725     -793.224785     -793.224785  0.853288 -4.001537 21.735860
   scf:   52     -803.937422     -799.017154     -799.017154  0.265122 -4.023437 17.180328
   scf:   53     -779.659865     -790.097101     -790.097101  0.262517 -3.925226 23.622977
   scf:   54     -724.366875     -760.558016     -760.558016  0.575979 -3.367174 38.229761
   scf:   55     -760.121283     -760.340913     -760.340913  0.035819 -2.983916 38.429191
   scf:   56     -742.388421     -751.545275     -751.545275  0.248413 -2.489055 43.085525
   scf:   57     -807.571535     -797.182117     -797.182131  1.885364 -3.933938 11.708368
   scf:   58     -800.743110     -799.456681     -799.456718  0.242425 -4.370075  9.639952
   scf:   59     -581.799321     -733.975135     -733.975135  1.614584 -6.610352 51.633396
   scf:   60     -740.814333     -737.415316     -737.415316  0.195427 -5.249599 47.828686
   scf:   61     -535.217019     -755.516386     -755.516386  1.916134 -2.515236 40.627303
   scf:   62     -746.309709     -750.958286     -750.958286  0.107385 -2.413256 43.359129
   scf:   63     -519.123087     -745.396176     -745.396176  1.934663 -5.107139 43.143613
   scf:   64     -777.952565     -762.311587     -762.311958  0.251545 -4.374699 34.606530
   scf:   65     -741.176977     -751.993176     -751.993176  0.163178 -4.801427 39.714010
   scf:   66     -750.918895     -801.443929     -801.443929  1.623262 -3.970691 14.502899
   scf:   67     -802.593272     -802.247523     -802.247523  0.219235 -4.049542 11.668628
   scf:   68     -796.146924     -804.468932     -804.472101  0.915933 -4.311583  7.022192
   scf:   69     -801.856536     -803.237651     -803.248971  0.057214 -4.369398  8.452551
   scf:   70     -804.918585     -804.134599     -804.135888  0.080581 -4.342152  7.099047
   scf:   71     -803.996291     -804.071146     -804.071506  0.083929 -4.378754  7.135367
   scf:   72     -806.311735     -805.282979     -805.300028  0.111927 -4.651659  6.667139
   scf:   73     -678.061195     -760.297720     -760.303888  1.586974 -4.644304 35.895803
   scf:   74     -710.857405     -793.345238     -793.345238  1.570214 -4.063214 21.432946
   scf:   75     -812.202625     -805.973889     -805.973889  0.655763 -4.276783  8.532026
   scf:   76     -808.587551     -807.589459     -807.589471  0.229130 -4.213826  4.652120
   scf:   77     -807.413168     -807.508259     -807.508279  0.039280 -4.245411  5.130559
   scf:   78     -785.406522     -801.811856     -801.870151  0.953749 -4.833693 12.877462
   scf:   79     -750.577834     -780.279139     -780.279700  0.496302 -4.956490 27.963280
   scf:   80     -797.003067     -789.126591     -789.138602  0.137821 -4.765990 22.023412
   scf:   81     -797.214997     -807.073193     -807.074949  1.623496 -4.487720  5.483960
   scf:   82     -742.281508     -788.845098     -788.865961  1.642509 -4.608622 21.860891
   scf:   83     -764.741930     -777.465923     -777.466238  0.320746 -4.593310 27.708026
   scf:   84     -810.939193     -806.985624     -807.026127  1.600576 -4.547377  5.297372
   scf:   85     -807.452922     -807.291738     -807.341631  0.134719 -4.537667  4.506624
   scf:   86     -806.518902     -807.016521     -807.046981  0.262901 -4.375891  5.510122
   scf:   87     -808.253894     -807.702105     -807.731292  0.204897 -4.491877  4.409264
   scf:   88     -741.422963     -785.509923     -785.520068  1.523077 -4.792160 24.134917
   scf:   89     -795.156285     -790.499242     -790.522250  0.091474 -4.617698 20.927347
   scf:   90     -797.389091     -807.561048     -807.583925  1.453143 -4.816347  5.501094
   scf:   91     -796.678126     -805.683968     -805.752295  0.625888 -4.649743  7.716472
   scf:   92     -808.583233     -807.690759     -807.749548  0.214027 -4.686425  3.480939
   scf:   93     -808.182397     -808.526401     -808.558182  0.382702 -4.712911  2.183480
   scf:   94     -808.633825     -808.605786     -808.641469  0.045063 -4.712483  1.108980
   scf:   95     -806.732797     -807.935776     -807.974609  0.262559 -4.587789  3.591631
   scf:   96     -798.984275     -804.944739     -805.011377  0.479449 -5.033056  9.665832
   scf:   97     -806.183194     -808.475390     -808.493924  0.650960 -4.970037  2.647585
   scf:   98     -808.664326     -808.577739     -808.598912  0.027297 -4.983861  2.066262
   scf:   99     -808.708082     -808.650923     -808.678047  0.038362 -5.007009  1.423253
   scf:  100     -808.636365     -808.644009     -808.667221  0.023619 -4.999063  1.543173
   scf:  101     -808.584814     -808.615648     -808.637984  0.009916 -5.000388  1.772462
   scf:  102     -808.739724     -808.698671     -808.728986  0.054142 -4.998120  0.775359
   scf:  103     -808.706931     -808.708285     -808.742609  0.031136 -5.001980  0.272970
   scf:  104     -808.343938     -808.588727     -808.608522  0.098586 -5.084985  1.947274
   scf:  105     -808.653180     -808.622352     -808.645110  0.017394 -5.086594  1.676452
   scf:  106     -808.528391     -808.577727     -808.596721  0.022158 -5.074807  2.036180
   scf:  107     -808.740352     -808.676924     -808.706616  0.066522 -5.071783  1.111922
   scf:  108     -808.713368     -808.697333     -808.726538  0.023829 -5.069446  0.810845
   scf:  109     -808.683433     -808.705223     -808.740667  0.048766 -5.061633  0.182855
   scf:  110     -808.451394     -808.634404     -808.658155  0.086856 -5.064750  1.622525
   scf:  111     -808.231420     -808.458475     -808.473645  0.048935 -5.057852  2.715994
   scf:  112     -808.649134     -808.560443     -808.578710  0.026808 -5.046744  2.205897
   scf:  113     -808.755308     -808.699686     -808.730480  0.081020 -5.053235  0.757264
   scf:  114     -808.023208     -808.447376     -808.459790  0.109731 -5.073652  2.768951
   scf:  115     -808.582399     -808.518194     -808.537591  0.035826 -5.106946  2.344709
   scf:  116     -808.748219     -808.707926     -808.738358  0.073889 -5.071953  0.504900
   scf:  117     -807.975759     -808.448392     -808.461636  0.105322 -5.077175  2.753288
   scf:  118     -808.687337     -808.709019     -808.743373  0.134319 -5.082781  0.126885
   scf:  119     -808.702302     -808.707439     -808.740709  0.015182 -5.089826  0.390537
   scf:  120     -808.253409     -808.546308     -808.566994  0.086411 -5.072750  2.224184
   scf:  121     -808.574718     -808.561197     -808.579785  0.027001 -5.104529  2.085216
   scf:  122     -808.142554     -808.370886     -808.384532  0.028035 -5.103448  3.039171
   scf:  123     -808.778880     -808.704707     -808.736138  0.109937 -5.108591  0.511400
   scf:  124     -808.054662     -808.467609     -808.485023  0.091342 -5.105435  2.585788
   scf:  125     -808.768171     -808.645961     -808.670570  0.043081 -5.123139  1.369945
   scf:  126     -808.724525     -808.691745     -808.718413  0.034119 -5.113595  0.877989
   scf:  127     -808.584692     -808.645000     -808.669385  0.022521 -5.086789  1.466133
   scf:  128     -808.668691     -808.657310     -808.683943  0.014836 -5.114020  1.286516
   scf:  129     -808.683838     -808.708462     -808.742253  0.055085 -5.114158  0.094601
   scf:  130     -808.710615     -808.710353     -808.743342  0.007316 -5.115040  0.121761
   scf:  131     -808.706490     -808.708823     -808.743132  0.010045 -5.126680  0.057160
   scf:  132     -808.707621     -808.709715     -808.742689  0.011414 -5.126260  0.249482
   scf:  133     -808.710536     -808.710309     -808.743570  0.002715 -5.130123  0.150799
   scf:  134     -808.710598     -808.710628     -808.743572  0.005155 -5.140835  0.052169
   scf:  135     -808.711385     -808.711228     -808.744011  0.010420 -5.149003  0.079154
   scf:  136     -808.710644     -808.710998     -808.744329  0.003862 -5.149250  0.030984
   scf:  137     -808.710587     -808.710888     -808.744663  0.007779 -5.147728  0.023791
   scf:  138     -808.710865     -808.710877     -808.744665  0.000285 -5.147908  0.022028
   scf:  139     -808.710365     -808.710624     -808.744696  0.004150 -5.148560  0.015582
   scf:  140     -808.710330     -808.710477     -808.744710  0.001393 -5.148293  0.019063
   scf:  141     -808.710155     -808.710318     -808.744727  0.001815 -5.150234  0.018516
   scf:  142     -808.710410     -808.710364     -808.744729  0.000849 -5.152000  0.014087
   scf:  143     -808.710277     -808.710327     -808.744750  0.002363 -5.155814  0.006492
   scf:  144     -808.710538     -808.710433     -808.744750  0.000895 -5.157439  0.004430
   scf:  145     -808.710476     -808.710455     -808.744751  0.000504 -5.158086  0.006236
   scf:  146     -808.710282     -808.710369     -808.744753  0.000664 -5.157302  0.002216
   scf:  147     -808.710370     -808.710370     -808.744753  0.000061 -5.157386  0.002197
   scf:  148     -808.710377     -808.710373     -808.744754  0.000348 -5.157605  0.001249
   scf:  149     -808.710387     -808.710380     -808.744754  0.000086 -5.157538  0.001106
   scf:  150     -808.710368     -808.710374     -808.744754  0.000110 -5.157353  0.000665

SCF Convergence by DM+H criterion
max |DM_out - DM_in|         :     0.0001103448
max |H_out - H_in|      (eV) :     0.0006648321
SCF cycle converged after 150 iterations

Using DM_out to compute the final energy and forces
No. of atoms with KB's overlaping orbs in proc 0. Max # of overlaps:       6      38

siesta: E_KS(eV) =             -808.7104

siesta: Atomic forces (eV/Ang):
----------------------------------------
   Tot   -0.000000    0.039232    0.001802
----------------------------------------
   Max  757.551764
   Res  252.165137    sqrt( Sum f_i^2 / 3N )
----------------------------------------
   Max  757.551764    constrained

Stress tensor Voigt[x,y,z,yz,xz,xy] (kbar):     -159.80     -161.91    -4267.06       -0.20        0.00        0.00
(Free)E + p*V (eV/cell)     -331.2850
Target enthalpy (eV/cell)     -808.7448

siesta: Stress tensor (static) (eV/Ang**3):
         0.012330    0.000000    0.000000
         0.000000    0.010699   -0.000151
         0.000000   -0.000151   -0.821839

siesta: Pressure (static):        426.61648147  kBar

siesta: Stress tensor (total) (eV/Ang**3):
        -0.099740    0.000000    0.000000
         0.000000   -0.101056   -0.000123
         0.000000   -0.000123   -2.663259

siesta: Pressure (total):       1529.59050515  kBar

siesta: Temp_ion =  743161.581 K

                     ====================================
                        Begin MD step =      6
                     ====================================

outcell: Unit cell vectors (Ang):
        7.937655    0.000000    0.000000
        0.000000    7.937655    0.000000
        0.000000    0.000000    7.937655

outcell: Cell vector modules (Ang)   :    7.937655    7.937655    7.937655
outcell: Cell angles (23,13,12) (deg):     90.0000     90.0000     90.0000
outcell: Cell volume (Ang**3)        :    500.1228
Gamma-point calculation with multiply-connected orbital pairs
Gamma-point calculation with multiply-connected orbital pairs
Folding of H and S implicitly performed
Folding of H and S implicitly performed
<dSpData1D:S at geom step 6
  <sparsity:sparsity for geom step 6
    nrows_g=51 nrows=51 sparsity=.8370 nnzs=2177, refcount: 7>
  <dData1D:(new from dSpData1D) n=2177, refcount: 1>
refcount: 1>
new_DM -- step:     6
Re-using DM from previous geometries...
Number of DMs in history: 1
 DM extrapolation coefficients: 
1   1.00000
New DM after history re-use:
<dSpData2D:SpM extrapolated using coords
  <sparsity:sparsity for geom step 6
    nrows_g=51 nrows=51 sparsity=.8370 nnzs=2177, refcount: 9>
  <dData2D:(temp array for extrapolation) n=2177 m=1, refcount: 1>
refcount: 1>
Note: For starting DM, Qtot, Tr[D*S] =         18.00000000         19.92316042
No. of atoms with KB's overlaping orbs in proc 0. Max # of overlaps:       6      34
New grid distribution:   1
           1       1:   36    1:   36    1:   36

InitMesh: MESH =    72 x    72 x    72 =      373248
InitMesh: (bp) =    36 x    36 x    36 =       46656
InitMesh: Mesh cutoff (required, used) =   200.000   227.396 Ry
ExtMesh (bp) on 0 =    84 x    84 x    84 =      592704
PhiOnMesh: Number of (b)points on node 0 =                46656
PhiOnMesh: nlist on node 0 =               242956

        iscf     Eharris(eV)        E_KS(eV)     FreeEng(eV)     dDmax    Ef(eV) dHmax(eV)
   scf:    1     -377.687671     -741.795956     -741.795956  2.082875 -4.464386 57.946100
   scf:    2     1372.149440     -257.404074     -257.473306  2.157544 -7.080164135.212562
   scf:    3    -1138.698685     -782.961211     -782.961240  3.101168 -3.829977 49.127366
   scf:    4     -787.726267     -837.441773     -837.441773  2.422776 -3.120174 44.815431
   scf:    5     -595.088458     -770.743902     -770.743902  1.971954 -4.999250 52.901061
   scf:    6     -771.001493     -770.874177     -770.874177  0.108427 -5.230930 51.923076
   scf:    7       38.045110     -608.599575     -608.599575  3.264075-40.901693118.229265
   scf:    8     -766.126611     -690.005781     -690.005781  0.750365-31.246928 89.737316
   scf:    9     -479.950034     -831.716867     -831.716867  2.419505 -3.336445 49.902919
   scf:   10     -342.253377     -772.608389     -772.608389  2.319717-25.253775 84.226969
   scf:   11     -480.058853     -828.467700     -828.467700  3.367530 -3.918962 58.724338
   scf:   12     -505.665853     -752.799328     -752.799328  2.114999 -4.038422 62.464390
   scf:   13     -743.796208     -761.773720     -761.773720  2.116857 -1.522692 51.208186
   scf:   14     -476.939529     -631.522071     -631.522071  1.358810 -2.878514 79.065082
   scf:   15     -577.777837     -605.008128     -605.008128  0.355245 -3.682169 82.073139
   scf:   16     -926.224715     -789.021365     -789.021371  2.217638 -6.476656 53.958855
   scf:   17     -316.536474     -580.379037     -580.379037  2.276744 -2.593202 89.291979
   scf:   18     -889.606964     -757.343574     -757.343574  0.864540 -3.871990 53.723905
   scf:   19      226.545053     -635.951291     -635.951291  2.249231  2.903521 83.771020
   scf:   20     -851.822248     -818.262010     -818.262014  1.987234 -4.582288 45.751334
   scf:   21     -812.982148     -815.633548     -815.633639  0.065501 -4.575241 46.840617
   scf:   22     -830.612004     -823.257302     -823.257302  0.144408 -4.525638 44.465733
   scf:   23     -751.325109     -799.485822     -799.503034  1.767848 -4.704062 49.086398
   scf:   24     -813.666449     -816.369330     -816.369331  1.766258 -5.004088 48.850397
   scf:   25      477.970293     -511.500844     -511.500844  1.773748 -3.885663 85.195775
   scf:   26     -495.333254     -503.450646     -503.450646  0.204017 -4.633363 86.602064
   scf:   27     -529.874576     -847.078626     -847.078626  2.084009 -5.305982 40.686027
   scf:   28     -246.444814     -614.026887     -614.026887  1.993169  3.437882 84.562811
   scf:   29     -930.168572     -842.081888     -842.081888  1.987304 -5.126936 39.935744
   scf:   30     -628.855641     -759.277155     -759.312445  1.987131 -4.037226 57.092288
   scf:   31     -936.957996     -899.927082     -899.932301  1.978297 -4.692580 15.997947
   scf:   32     -905.923588     -903.075884     -903.089340  0.183457 -4.330008 13.294691
   scf:   33     -772.532120     -851.898764     -851.934953  1.743904 -5.015070 40.066264
   scf:   34     -855.559663     -853.753378     -853.785499  0.051101 -5.077676 39.479695
   scf:   35     -827.208574     -849.834565     -849.863217  1.151838 -4.952235 39.051761
   scf:   36     -866.807498     -858.702234     -858.702234  0.255926 -4.562764 33.311259
   scf:   37     -603.632907     -839.223908     -839.223908  2.343706 -2.128157 56.384670
   scf:   38     -849.011692     -844.186251     -844.186251  0.873980 -2.889069 47.021331
   scf:   39     -839.826677     -842.015647     -842.015647  0.318936 -3.511253 50.773769
   scf:   40     -610.686763     -851.947811     -851.956883  2.234692 -5.193722 40.601044
   scf:   41     -569.924012     -842.367376     -842.367376  2.231720 -4.009573 49.959378
   scf:   42     -847.941825     -845.169528     -845.169528  0.302604 -2.519928 46.154298
   scf:   43     -884.866326     -910.286281     -910.298894  2.263463 -3.139750  9.557794
   scf:   44     -897.679035     -904.945829     -904.968557  0.498166 -4.743201 14.044353
   scf:   45     -907.555596     -906.293071     -906.308339  0.169931 -3.830705 11.221234
   scf:   46     -906.364579     -906.329293     -906.345844  0.010273 -3.808717 11.113347
   scf:   47     -728.277638     -836.149325     -836.149325  1.532879 -7.369410 50.347315
   scf:   48     -561.767479     -844.068361     -844.068361  2.005285 -3.189460 47.218120
   scf:   49     -845.431860     -844.751507     -844.751507  0.042101 -2.532395 46.580651
   scf:   50     -843.516454     -844.136934     -844.136934  0.041779 -2.415083 47.135185
   scf:   51     -589.491526     -844.870910     -844.870913  2.160135 -5.295953 43.350868
   scf:   52     -928.676949     -906.287422     -906.312547  1.829657 -3.876250 11.297970
   scf:   53     -906.379641     -906.333616     -906.358532  0.006245 -3.853093 11.203588
   scf:   54     -904.553717     -905.462880     -905.492681  0.111944 -4.438423 13.078397
   scf:   55     -662.630718     -844.236769     -844.236769  2.314627 -1.829988 47.094986
   scf:   56     -861.141817     -852.818344     -852.818344  0.290435 -2.726720 43.087692
   scf:   57     -874.336240     -863.833055     -863.833064  0.276784 -2.833982 39.296599
   scf:   58     -580.506748     -835.689270     -835.689270  1.864350 -7.479641 50.852329
   scf:   59     -932.372043     -904.688897     -904.709290  1.469627 -4.889328 14.555415
   scf:   60     -734.664687     -836.346970     -836.346970  1.509587 -7.412207 50.369920
   scf:   61     -853.783627     -845.269742     -845.269743  0.418914 -5.136519 43.039825
   scf:   62     -711.625721     -879.095692     -879.095854  2.054744 -2.817932 33.796384
   scf:   63     -861.474778     -905.466674     -905.477797  1.868577 -4.425176 13.101874
   scf:   64     -904.918125     -905.194226     -905.206688  0.035424 -4.641776 13.713155
   scf:   65     -905.130855     -905.162820     -905.179121  0.032523 -4.691736 13.818907
   scf:   66     -904.981567     -905.072704     -905.086524  0.024278 -4.712169 13.958227
   scf:   67     -769.884146     -852.068122     -852.074370  1.950364 -5.013955 40.274157
   scf:   68     -833.097108     -842.654837     -842.654837  0.219600 -5.353526 44.976950
   scf:   69     -891.056727     -868.204320     -868.235019  0.393863 -5.160159 34.739216
   scf:   70     -599.507953     -845.652735     -845.652735  2.205932 -2.529645 46.329175
   scf:   71     -863.456164     -907.542455     -907.551458  2.395190 -3.403755  9.379079
   scf:   72     -908.259524     -907.904719     -907.912839  0.039147 -3.326274  9.469829
   scf:   73     -906.035879     -906.994540     -907.003971  0.093894 -3.562542 10.042181
   scf:   74     -904.980672     -906.014328     -906.026475  0.111936 -4.096487 12.026656
   scf:   75     -906.439527     -906.230600     -906.254116  0.080034 -4.046345 11.631632
   scf:   76     -820.173452     -872.458749     -872.497937  1.654486 -4.564649 32.363290
   scf:   77     -866.262022     -908.611423     -908.684962  1.832795 -4.778633 12.255991
   scf:   78     -885.633225     -909.503531     -909.568411  1.679823 -4.030507  8.540156
   scf:   79     -903.559458     -906.609893     -906.665752  0.391829 -4.109095 11.226272
   scf:   80     -906.080479     -906.348128     -906.407110  0.045196 -4.281737 11.806381
   scf:   81     -906.177371     -906.272889     -906.333928  0.164333 -4.365434 12.215538
   scf:   82     -906.223177     -906.280182     -906.324118  0.348639 -4.256300 11.919104
   scf:   83     -906.728284     -906.505550     -906.549245  0.026709 -4.134906 11.467347
   scf:   84     -740.007999     -840.762723     -840.762723  1.526249 -6.022775 46.745216
   scf:   85     -828.862571     -834.905788     -834.905788  0.305228 -8.958427 52.289674
   scf:   86     -735.378997     -885.522073     -885.524650  1.993775 -3.925667 29.444169
   scf:   87     -812.950099     -852.711473     -852.711474  1.105746 -3.693409 41.755942
   scf:   88     -837.138271     -845.037522     -845.037522  0.308680 -3.748181 44.939957
   scf:   89     -850.527995     -847.797302     -847.797302  0.141487 -3.704523 43.446200
   scf:   90     -858.082546     -906.442684     -906.507990  2.046998 -4.046953 11.290770
   scf:   91     -699.100075     -855.143777     -855.143779  2.016323 -3.300920 41.539387
   scf:   92     -861.308251     -858.250842     -858.250864  0.100234 -3.548125 40.211163
   scf:   93     -889.145906     -874.454626     -874.456534  0.524510 -3.655604 34.352225
   scf:   94     -912.456468     -895.934049     -895.963296  0.710806 -3.788302 23.905175
   scf:   95     -896.014394     -895.974305     -896.005470  0.016043 -3.801279 23.849208
   scf:   96     -918.486201     -909.348640     -909.431214  0.584422 -4.588100 12.521010
   scf:   97     -777.168147     -876.394512     -876.446168  1.773505 -5.717475 32.621042
   scf:   98     -820.700475     -899.470617     -899.495820  1.902628 -3.713077 22.009024
   scf:   99     -912.456642     -906.599322     -906.653498  0.317032 -3.980858 16.078274
   scf:  100     -916.586128     -912.198043     -912.257311  0.295887 -4.263843 10.634624
   scf:  101     -897.123316     -905.672106     -905.751306  1.059830 -4.693969 14.787829
   scf:  102     -874.666019     -907.337059     -907.391654  1.876314 -4.935874 12.437442
   scf:  103     -900.044528     -913.674998     -913.753209  1.364872 -4.674673  8.030227
   scf:  104     -908.378802     -911.235645     -911.307197  0.280653 -4.582201 10.929425
   scf:  105     -907.011252     -909.223637     -909.304806  0.202980 -4.456268 12.896493
   scf:  106     -910.710513     -909.978060     -910.058833  0.047326 -4.485811 12.225789
   scf:  107     -911.752533     -910.931273     -911.010808  0.513841 -4.586443 11.287547
   scf:  108     -899.002569     -905.455263     -905.531841  0.493808 -4.401718 15.572944
   scf:  109     -904.687583     -905.103158     -905.160289  0.325872 -4.615533 15.265088
   scf:  110     -870.454477     -906.448107     -906.518022  1.893956 -5.651515 14.475921
   scf:  111     -900.516603     -913.923177     -913.997676  1.342516 -4.617437  7.860251
   scf:  112     -902.436373     -908.900103     -908.981693  0.367424 -4.581676 12.948068
   scf:  113     -906.719855     -907.828264     -907.909476  0.073848 -4.475721 13.930008
   scf:  114     -908.933568     -908.442628     -908.499876  0.466713 -4.651803 13.034902
   scf:  115     -917.483321     -916.051544     -916.123695  0.783158 -4.845285  2.281060
   scf:  116     -911.923502     -914.496072     -914.573427  0.313456 -4.922998  6.467419
   scf:  117     -893.516874     -905.841239     -905.922270  0.646702 -4.641807 14.939980
   scf:  118     -904.299207     -905.133475     -905.212010  0.534562 -4.616574 15.584344
   scf:  119     -905.174428     -905.159003     -905.233043  0.173986 -4.702196 15.436993
   scf:  120     -904.765306     -904.973555     -905.040845  0.232430 -4.643077 15.706136
   scf:  121     -906.164556     -905.595012     -905.670087  0.318620 -4.885976 14.783831
   scf:  122     -906.461856     -906.054387     -906.128088  0.298961 -5.219364 13.812083
   scf:  123     -653.991507     -836.719991     -836.719991  1.977303 -6.302744 50.057031
   scf:  124     -560.308796     -843.517181     -843.517181  2.023013 -1.985500 47.712890
   scf:  125     -843.023370     -843.270752     -843.270752  0.040876 -1.806343 48.282321
   scf:  126     -906.795146     -906.997889     -907.041510  1.925125 -3.568578  9.693407
   scf:  127     -895.421802     -910.664313     -910.727454  1.661465 -5.305117 10.112149
   scf:  128     -900.816510     -906.091916     -906.160939  0.464965 -5.192625 13.835916
   scf:  129     -907.962531     -907.072481     -907.127478  0.259477 -5.603882 12.149490
   scf:  130     -903.589894     -905.475606     -905.546886  0.530668 -4.681432 15.283601
   scf:  131     -916.949619     -915.959434     -916.014754  0.972874 -5.467724  0.888899
   scf:  132     -886.504421     -905.828387     -905.911764  0.888055 -5.006468 14.390561
   scf:  133     -905.059650     -905.447934     -905.520578  0.181313 -4.873295 14.909877
   scf:  134     -904.945344     -905.200359     -905.273681  0.102126 -4.733320 15.334144
   scf:  135     -904.670039     -904.963188     -905.038161  0.301176 -4.533201 15.643297
   scf:  136     -905.512205     -905.253044     -905.328303  0.230006 -4.744758 15.228929
   scf:  137     -910.674893     -908.085654     -908.159240  0.359210 -5.115997 12.727988
   scf:  138     -665.962332     -839.740231     -839.740231  1.867851 -6.581500 47.735476
   scf:  139     -917.053986     -908.152768     -908.178087  1.137770 -4.361936  8.182495
   scf:  140     -902.471602     -906.345401     -906.436330  0.726428 -4.956690 12.792194
   scf:  141     -864.996145     -905.735743     -905.814381  1.951580 -4.741516 14.951837
   scf:  142     -905.732864     -905.734832     -905.814786  0.047893 -4.745772 14.918879
   scf:  143     -919.683682     -915.128886     -915.199748  0.739109 -4.835348  5.604188
   scf:  144     -897.501444     -908.001158     -908.079601  0.565302 -4.771713 13.391956
   scf:  145     -904.097288     -906.098048     -906.173661  0.213686 -4.838844 14.606022
   scf:  146     -905.981473     -906.039826     -906.115562  0.011705 -4.833834 14.649674
   scf:  147     -905.238101     -905.642829     -905.717481  0.109328 -4.985971 14.614670
   scf:  148     -905.807886     -905.725527     -905.800458  0.018788 -5.030849 14.481064
   scf:  149     -909.240702     -907.529038     -907.603306  0.224239 -5.361739 12.714537
   scf:  150     -686.228440     -848.251204     -848.254405  1.900159 -6.379492 43.423996
SCF_NOT_CONV: SCF did not converge in maximum number of steps (required).
SCF_NOT_CONV: SCF did not converge in maximum number of steps (required).
Geom step, scf iteration, dmax:    6   150    3.191580
Geom step, scf iteration, dmax:    6   150    3.191580

timer: Elapsed wall time (sec) =     154.868
timer: CPU execution times (sec):

Routine            Calls   Time/call    Tot.time        %
siesta                 1     661.239     661.239   100.00
Setup                  1       0.371       0.371     0.06
bands                  1       0.000       0.000     0.00
KSV_init               1       0.000       0.000     0.00
IterGeom               6     110.145     660.868    99.94
state_init             6       0.235       1.409     0.21
hsparse                6       0.000       0.001     0.00
overlap                6       0.234       1.404     0.21
Setup_H0               6       2.906      17.435     2.64
naefs                 11       0.000       0.002     0.00
MolMec                11       0.000       0.000     0.00
kinefsm               11       0.132       1.449     0.22
nlefsm                11       1.268      13.952     2.11
DHSCF_Init             6       0.342       2.053     0.31
DHSCF1                 6       0.012       0.074     0.01
INITMESH               6       0.000       0.000     0.00
DHSCF2                 6       0.330       1.979     0.30
REMESH                 6       0.034       0.206     0.03
REORD                898       0.005       4.749     0.72
PHION                  6       0.174       1.045     0.16
COMM_BSC            1656       0.004       5.797     0.88
POISON               416       0.955     397.230    60.07
fft                  832       0.436     362.946    54.89
IterSCF              399       1.603     639.662    96.74
setup_H              405       1.570     635.910    96.17
DHSCF                410       1.556     638.158    96.51
DHSCF3               410       1.554     637.162    96.36
rhoofd               410       0.354     145.030    21.93
XC                   410       0.162      66.352    10.03
GXC-CellXC           410       0.157      64.437     9.74
cellXC               410       0.157      64.421     9.74
vmat                 410       0.011       4.683     0.71
compute_dm           399       0.009       3.594     0.54
diagon               399       0.009       3.551     0.54
r-eigvec             399       0.007       2.665     0.40
r-buildHS            399       0.000       0.005     0.00
rdiag                399       0.007       2.654     0.40
rdiag1               399       0.000       0.007     0.00
rdiag2               399       0.000       0.018     0.00
rdiag3               399       0.005       1.993     0.30
rdiag4               399       0.002       0.609     0.09
r-buildD             399       0.002       0.771     0.12
MIXER                394       0.000       0.037     0.01
PostSCF                5       0.471       2.357     0.36
DHSCF4                 5       0.198       0.991     0.15
dfscf                  5       0.166       0.830     0.13
overfsm                5       0.001       0.004     0.00
state_analysis         5       0.000       0.001     0.00
siesta_move            5       0.001       0.003     0.00
  
ABNORMAL_TERMINATION
Stopping Program from Node:    0
ABNORMAL_TERMINATION
Stopping Program from Node:    0
--------------------------------------------------------------------------
MPI_ABORT was invoked on rank 0 in communicator MPI COMMUNICATOR 3 CREATE FROM 0
with errorcode 1.

NOTE: invoking MPI_ABORT causes Open MPI to kill all MPI processes.
You may or may not see output from other processes, depending on
exactly when Open MPI kills them.
--------------------------------------------------------------------------
