Siesta Version  : 4.1.5
Architecture    : unknown
Compiler version: GNU Fortran (GCC) 9.4.0
Compiler flags  : mpifort -march=nocona -mtune=haswell -ftree-vectorize -fPIC -fstack-protectorr-strong -fno-plt -O2 -ffunction-sections -pipe
PP flags        : -DFC_HAVE_ABORT -DCDF -DMPI -DSIESTA__MRRR -DNCDF -DNCDF_4
Libraries       : libncdf.a libfdict.a -lscalapack -llapack -lblas -lnetcdff -lnetcdf -lhdf5_hll -lhdf5 -lz
PARALLEL version
NetCDF support
NetCDF-4 support

* Running in serial mode with MPI
>> Start of run:  17-JUN-2023  22:34:58

                           ***********************       
                           *  WELCOME TO SIESTA  *       
                           ***********************       

reinit: Reading from standard input
reinit: Dumped input in INPUT_TMP.50085
************************** Dump of input data file ****************************
SystemName NH2-CH2-CN+H2O reaction         # Descriptive name of the system
SystemLabel            NH2-CH2-CN          # Short name for naming files
# Species and atoms
NumberOfSpecies       4
NumberOfAtoms         10
%block ChemicalSpeciesLabel
  1   6   C
  2   1   H
  3   7   N
  4   8   O
%endblock ChemicalSpeciesLabel
# Basis
%block PAO.BasisSizes
    C DZP
    N DZP
    O DZP
    H SZP
%endblock PAO.BasisSizes
LatticeConstant       1.0000 Ang
%block LatticeVectors
15.00000   0.000000  0.000000
 0.00000  15.000000  0.000000
 0.00000   0.000000 15.000000
%endblock LatticeVectors
%block kgrid_Monkhorst_Pack
   1  0  0  0.
   0  1  0  0.
   0  0  1  0.
%endblock Kgrid_Monkhorst_Pack
xc.functional         GGA           # Exchange-correlation functional
xc.authors            PBE           # Exchange-correlation version
#SpinPolarized         true          # Logical parameters are: yes or no
MeshCutoff           200. Ry        # Mesh cutoff. real space mesh
# SCF options
#SCFMustConvergence     true
MaxSCFIterations       150          # Maximum number of SCF iter
DM.MixingWeight       0.02          # New DM amount for next SCF cycle
DM.Tolerance          3.d-4         # Tolerance in maximum difference
                                    # between input and output DM
DM.NumberPulay          6           # to use continuation files
#DM.NumberBroyden       3
#DM.AllowExtrapolation  false
MD.UseSaveData           true
Diag.DivideAndConquer 	true
SolutionMethod        diagon        # OrderN or Diagon
ElectronicTemperature  25 meV       # Temp. for Fermi smearing
# -----------------------------
#  MD options
#  options for a basic MD run
# -----------------------------
# Options to Integrate Equations of motion
MD.TypeOfRun         verlet         # Standard Verlet algrithm
                                    # for Molecular Dynamics
MD.LengthTimeStep         1.0 fs    # time step integration
                                    # Newton eqs of motion
MD.Initial.Time.Step     1          #initial time step of MD
MD.FinalTimeStep         100        #Final time step of MD
# Initial Atomic coordinates and Velocity for MD run
MD.InitialTemperature     0 K       #Assign initial random velocity from
                                    # a Maxwell-Boltzmann distribution
                                    # for a given temperature
MD.UseSaveXV 		true            # use atomic Positions
                                    # and Velocities from
                                    # a saved XV file
AtomicCoordinatesFormat Ang         #Use Angstroms for atomic coordinates
%block AtomicCoordinatesAndAtomicSpecies
            0.0000    0.0000    0.0000 1 ! C 1
            0.0000    1.4100    0.0000 2 ! H 2
            0.0000   -1.4100    0.0000 2 ! H 3
            3.0000    0.0000    0.0000 3 ! N 4
            3.0000    1.0890    0.0000 2 ! H 5
            3.0000   -1.0890    0.0000 2 ! H 6
           -3.0000    0.0000    0.0000 1 ! C 7
           -4.0000   -1.0000    0.0000 4 ! O 8
           -4.0950   -1.0000    0.0000 2 ! H 9
           -3.0000    1.0000    0.0000 4 ! O 10
%endblock AtomicCoordinatesAndAtomicSpecies
#MD Output
WriteCoorXmol          true         #Save the final coordinates in .xyz format
WriteMDXmol            true         #Writes the coordinates
                                    #of all atoms at all steps
                                    #in a .ANI file
                                    #in xyz format
WriteMDhistory         true         #writes .MDE and .MD files
                                    # with output data from MD simulation
                                    # MDE contains: Temp, energy, volume, pressure
                                    # (human readable)
                                    # MD contains coords vel lattice vectors
                                    # (unformatted; post-process with iomd.f)
************************** End of input data file *****************************

reinit: -----------------------------------------------------------------------
reinit: System Name: NH2-CH2-CN+H2O reaction
reinit: -----------------------------------------------------------------------
reinit: System Label: NH2-CH2-CN
reinit: -----------------------------------------------------------------------

initatom: Reading input for the pseudopotentials and atomic orbitals ----------
Species number:   1 Atomic number:    6 Label: C
Species number:   2 Atomic number:    1 Label: H
Species number:   3 Atomic number:    7 Label: N
Species number:   4 Atomic number:    8 Label: O

Ground state valence configuration:   2s02  2p02
Reading pseudopotential information in formatted form from C.psf

Valence configuration for pseudopotential generation:
2s( 2.00) rc: 1.54
2p( 2.00) rc: 1.54
3d( 0.00) rc: 1.54
4f( 0.00) rc: 1.54
Ground state valence configuration:   1s01
Reading pseudopotential information in formatted form from H.psf

Valence configuration for pseudopotential generation:
1s( 1.00) rc: 1.31
2p( 0.00) rc: 1.31
3d( 0.00) rc: 0.37
4f( 0.00) rc: 1.31
Ground state valence configuration:   2s02  2p03
Reading pseudopotential information in formatted form from N.psf

Valence configuration for pseudopotential generation:
2s( 2.00) rc: 1.48
2p( 3.00) rc: 1.48
3d( 0.00) rc: 1.48
4f( 0.00) rc: 1.48
Ground state valence configuration:   2s02  2p04
Reading pseudopotential information in formatted form from O.psf

Valence configuration for pseudopotential generation:
2s( 2.00) rc: 1.47
2p( 4.00) rc: 1.47
3d( 0.00) rc: 1.47
4f( 0.00) rc: 1.47
resizes: Read basis size for species C = dzp                 
resizes: Read basis size for species N = dzp                 
resizes: Read basis size for species O = dzp                 
resizes: Read basis size for species H = szp                 
For C, standard SIESTA heuristics set lmxkb to 3
 (one more than the basis l, including polarization orbitals).
Use PS.lmax or PS.KBprojectors blocks to override.
For H, standard SIESTA heuristics set lmxkb to 2
 (one more than the basis l, including polarization orbitals).
Use PS.lmax or PS.KBprojectors blocks to override.
For N, standard SIESTA heuristics set lmxkb to 3
 (one more than the basis l, including polarization orbitals).
Use PS.lmax or PS.KBprojectors blocks to override.
For O, standard SIESTA heuristics set lmxkb to 3
 (one more than the basis l, including polarization orbitals).
Use PS.lmax or PS.KBprojectors blocks to override.

<basis_specs>
===============================================================================
C                    Z=   6    Mass=  12.010        Charge= 0.17977+309
Lmxo=1 Lmxkb= 3    BasisType=split      Semic=F
L=0  Nsemic=0  Cnfigmx=2
          i=1  nzeta=2  polorb=0  (2s)
            splnorm:   0.15000    
               vcte:    0.0000    
               rinn:    0.0000    
               qcoe:    0.0000    
               qyuk:    0.0000    
               qwid:   0.10000E-01
                rcs:    0.0000      0.0000    
            lambdas:    1.0000      1.0000    
L=1  Nsemic=0  Cnfigmx=2
          i=1  nzeta=2  polorb=1  (2p)
            splnorm:   0.15000    
               vcte:    0.0000    
               rinn:    0.0000    
               qcoe:    0.0000    
               qyuk:    0.0000    
               qwid:   0.10000E-01
                rcs:    0.0000      0.0000    
            lambdas:    1.0000      1.0000    
-------------------------------------------------------------------------------
L=0  Nkbl=1  erefs: 0.17977+309
L=1  Nkbl=1  erefs: 0.17977+309
L=2  Nkbl=1  erefs: 0.17977+309
L=3  Nkbl=1  erefs: 0.17977+309
===============================================================================
</basis_specs>

atom: Called for C                     (Z =   6)

read_vps: Pseudopotential generation method:
read_vps: ATM3      Troullier-Martins                       
Valence charge for ps generation:    4.00000

read_vps: Pseudopotential includes a core correction:
read_vps: Pseudo-core for xc-correction

xc_check: Exchange-correlation functional:
xc_check: GGA Perdew, Burke & Ernzerhof 1996
V l=0 = -2*Zval/r beyond r=  1.5227
V l=1 = -2*Zval/r beyond r=  1.5227
V l=2 = -2*Zval/r beyond r=  1.5227
V l=3 = -2*Zval/r beyond r=  1.5038
All V_l potentials equal beyond r=  1.5227
This should be close to max(r_c) in ps generation
All pots = -2*Zval/r beyond r=  1.5227

VLOCAL1: 99.0% of the norm of Vloc inside     18.722 Ry
VLOCAL1: 99.9% of the norm of Vloc inside     42.668 Ry
atom: Maximum radius for 4*pi*r*r*local-pseudopot. charge    1.83678
atom: Maximum radius for r*vlocal+2*Zval:    1.58088
GHOST: No ghost state for L =  0
GHOST: No ghost state for L =  1
GHOST: No ghost state for L =  2
GHOST: No ghost state for L =  3

KBgen: Kleinman-Bylander projectors: 
   l= 0   rc=  1.704034   el= -1.009801   Ekb=  5.335044   kbcos=  0.316824
   l= 1   rc=  1.704034   el= -0.388707   Ekb= -3.785862   kbcos= -0.366464
   l= 2   rc=  1.791422   el=  0.001971   Ekb= -0.970471   kbcos= -0.009212
   l= 3   rc=  1.859892   el=  0.003065   Ekb= -0.399525   kbcos= -0.001223

KBgen: Total number of Kleinman-Bylander projectors:   16
atom: -------------------------------------------------------------------------

atom: SANKEY-TYPE ORBITALS:
atom: Selected multiple-zeta basis: split     

SPLIT: Orbitals with angular momentum L= 0

SPLIT: Basis orbitals for state 2s

SPLIT: PAO cut-off radius determined from an
SPLIT: energy shift=  0.020000 Ry

   izeta = 1
                 lambda =    1.000000
                     rc =    4.088342
                 energy =   -0.989105
                kinetic =    0.904439
    potential(screened) =   -1.893544
       potential(ionic) =   -5.484581

   izeta = 2
                 rmatch =    3.347176
              splitnorm =    0.150000
                 energy =   -0.835603
                kinetic =    1.364067
    potential(screened) =   -2.199670
       potential(ionic) =   -6.017020

SPLIT: Orbitals with angular momentum L= 1

SPLIT: Basis orbitals for state 2p

SPLIT: PAO cut-off radius determined from an
SPLIT: energy shift=  0.020000 Ry

   izeta = 1
                 lambda =    1.000000
                     rc =    4.870301
                 energy =   -0.368906
                kinetic =    2.520369
    potential(screened) =   -2.889275
       potential(ionic) =   -6.370528

   izeta = 2
                 rmatch =    3.475094
              splitnorm =    0.150000
                 energy =   -0.205913
                kinetic =    3.767535
    potential(screened) =   -3.973448
       potential(ionic) =   -7.809680

POLgen: Perturbative polarization orbital with L=  2

POLgen: Polarization orbital for state 2p

   izeta = 1
                     rc =    4.870301
                 energy =    1.296434
                kinetic =    2.645086
    potential(screened) =   -1.348652
       potential(ionic) =   -4.303965
atom: Total number of Sankey-type orbitals: 13

atm_pop: Valence configuration (for local Pseudopot. screening):
 2s( 2.00)                                                            
 2p( 2.00)                                                            
Vna: chval, zval:    4.00000   4.00000

Vna:  Cut-off radius for the neutral-atom potential:   4.870301
comcore: Pseudo-core radius Rcore=  1.791422

atom: _________________________________________________________________________

<basis_specs>
===============================================================================
H                    Z=   1    Mass=  1.0100        Charge= 0.17977+309
Lmxo=0 Lmxkb= 2    BasisType=split      Semic=F
L=0  Nsemic=0  Cnfigmx=1
          i=1  nzeta=1  polorb=1  (1s)
            splnorm:   0.15000    
               vcte:    0.0000    
               rinn:    0.0000    
               qcoe:    0.0000    
               qyuk:    0.0000    
               qwid:   0.10000E-01
                rcs:    0.0000    
            lambdas:    1.0000    
-------------------------------------------------------------------------------
L=0  Nkbl=1  erefs: 0.17977+309
L=1  Nkbl=1  erefs: 0.17977+309
L=2  Nkbl=1  erefs: 0.17977+309
===============================================================================
</basis_specs>

atom: Called for H                     (Z =   1)

read_vps: Pseudopotential generation method:
read_vps: ATM3      Troullier-Martins                       
Valence charge for ps generation:    1.00000

xc_check: Exchange-correlation functional:
xc_check: GGA Perdew, Burke & Ernzerhof 1996
V l=0 = -2*Zval/r beyond r=  1.2977
V l=1 = -2*Zval/r beyond r=  1.2815
V l=2 = -2*Zval/r beyond r=  1.2656
All V_l potentials equal beyond r=  1.2977
This should be close to max(r_c) in ps generation
All pots = -2*Zval/r beyond r=  1.2977

VLOCAL1: 99.0% of the norm of Vloc inside     25.776 Ry
VLOCAL1: 99.9% of the norm of Vloc inside     58.745 Ry
atom: Maximum radius for 4*pi*r*r*local-pseudopot. charge    1.52711
atom: Maximum radius for r*vlocal+2*Zval:    1.28155
GHOST: No ghost state for L =  0
GHOST: No ghost state for L =  1
GHOST: No ghost state for L =  2

KBgen: Kleinman-Bylander projectors: 
   l= 0   rc=  1.434438   el= -0.477200   Ekb= -1.957043   kbcos= -0.361614
   l= 1   rc=  1.508111   el=  0.001076   Ekb= -0.424224   kbcos= -0.025441
   l= 2   rc=  1.527112   el=  0.002010   Ekb= -0.378578   kbcos= -0.002010

KBgen: Total number of Kleinman-Bylander projectors:    9
atom: -------------------------------------------------------------------------

atom: SANKEY-TYPE ORBITALS:

SPLIT: Orbitals with angular momentum L= 0

SPLIT: Basis orbitals for state 1s

SPLIT: PAO cut-off radius determined from an
SPLIT: energy shift=  0.020000 Ry

   izeta = 1
                 lambda =    1.000000
                     rc =    4.708991
                 energy =   -0.457754
                kinetic =    0.977134
    potential(screened) =   -1.434888
       potential(ionic) =   -1.963073

POLgen: Perturbative polarization orbital with L=  1

POLgen: Polarization orbital for state 1s

   izeta = 1
                     rc =    4.708991
                 energy =    0.764959
                kinetic =    1.478379
    potential(screened) =   -0.713420
       potential(ionic) =   -1.205754
atom: Total number of Sankey-type orbitals:  4

atm_pop: Valence configuration (for local Pseudopot. screening):
 1s( 1.00)                                                            
Vna: chval, zval:    1.00000   1.00000

Vna:  Cut-off radius for the neutral-atom potential:   4.708991

atom: _________________________________________________________________________

<basis_specs>
===============================================================================
N                    Z=   7    Mass=  14.010        Charge= 0.17977+309
Lmxo=1 Lmxkb= 3    BasisType=split      Semic=F
L=0  Nsemic=0  Cnfigmx=2
          i=1  nzeta=2  polorb=0  (2s)
            splnorm:   0.15000    
               vcte:    0.0000    
               rinn:    0.0000    
               qcoe:    0.0000    
               qyuk:    0.0000    
               qwid:   0.10000E-01
                rcs:    0.0000      0.0000    
            lambdas:    1.0000      1.0000    
L=1  Nsemic=0  Cnfigmx=2
          i=1  nzeta=2  polorb=1  (2p)
            splnorm:   0.15000    
               vcte:    0.0000    
               rinn:    0.0000    
               qcoe:    0.0000    
               qyuk:    0.0000    
               qwid:   0.10000E-01
                rcs:    0.0000      0.0000    
            lambdas:    1.0000      1.0000    
-------------------------------------------------------------------------------
L=0  Nkbl=1  erefs: 0.17977+309
L=1  Nkbl=1  erefs: 0.17977+309
L=2  Nkbl=1  erefs: 0.17977+309
L=3  Nkbl=1  erefs: 0.17977+309
===============================================================================
</basis_specs>

atom: Called for N                     (Z =   7)

read_vps: Pseudopotential generation method:
read_vps: ATM3      Troullier-Martins                       
Valence charge for ps generation:    5.00000

read_vps: Pseudopotential includes a core correction:
read_vps: Pseudo-core for xc-correction

xc_check: Exchange-correlation functional:
xc_check: GGA Perdew, Burke & Ernzerhof 1996
V l=0 = -2*Zval/r beyond r=  1.4606
V l=1 = -2*Zval/r beyond r=  1.4606
V l=2 = -2*Zval/r beyond r=  1.4606
V l=3 = -2*Zval/r beyond r=  1.4606
All V_l potentials equal beyond r=  1.4606
This should be close to max(r_c) in ps generation
All pots = -2*Zval/r beyond r=  1.4606

VLOCAL1: 99.0% of the norm of Vloc inside     20.347 Ry
VLOCAL1: 99.9% of the norm of Vloc inside     46.372 Ry
atom: Maximum radius for 4*pi*r*r*local-pseudopot. charge    1.76189
atom: Maximum radius for r*vlocal+2*Zval:    1.53550
GHOST: No ghost state for L =  0
GHOST: No ghost state for L =  1
GHOST: No ghost state for L =  2
GHOST: No ghost state for L =  3

KBgen: Kleinman-Bylander projectors: 
   l= 0   rc=  1.634559   el= -1.363963   Ekb=  5.296955   kbcos=  0.335621
   l= 1   rc=  1.614250   el= -0.521451   Ekb= -5.259161   kbcos= -0.433408
   l= 2   rc=  1.718383   el=  0.001991   Ekb= -1.271464   kbcos= -0.007566
   l= 3   rc=  1.761893   el=  0.003093   Ekb= -0.494769   kbcos= -0.001015

KBgen: Total number of Kleinman-Bylander projectors:   16
atom: -------------------------------------------------------------------------

atom: SANKEY-TYPE ORBITALS:
atom: Selected multiple-zeta basis: split     

SPLIT: Orbitals with angular momentum L= 0

SPLIT: Basis orbitals for state 2s

SPLIT: PAO cut-off radius determined from an
SPLIT: energy shift=  0.020000 Ry

   izeta = 1
                 lambda =    1.000000
                     rc =    3.683980
                 energy =   -1.346493
                kinetic =    1.217702
    potential(screened) =   -2.564196
       potential(ionic) =   -8.121417

   izeta = 2
                 rmatch =    2.869008
              splitnorm =    0.150000
                 energy =   -1.143688
                kinetic =    1.842239
    potential(screened) =   -2.985927
       potential(ionic) =   -8.929748

SPLIT: Orbitals with angular momentum L= 1

SPLIT: Basis orbitals for state 2p

SPLIT: PAO cut-off radius determined from an
SPLIT: energy shift=  0.020000 Ry

   izeta = 1
                 lambda =    1.000000
                     rc =    4.280232
                 energy =   -0.501066
                kinetic =    3.581781
    potential(screened) =   -4.082847
       potential(ionic) =   -9.491389

   izeta = 2
                 rmatch =    2.905100
              splitnorm =    0.150000
                 energy =   -0.269325
                kinetic =    5.375034
    potential(screened) =   -5.644358
       potential(ionic) =  -11.640447

POLgen: Perturbative polarization orbital with L=  2

POLgen: Polarization orbital for state 2p

   izeta = 1
                     rc =    4.280232
                 energy =    1.846098
                kinetic =    3.706851
    potential(screened) =   -1.860753
       potential(ionic) =   -6.377604
atom: Total number of Sankey-type orbitals: 13

atm_pop: Valence configuration (for local Pseudopot. screening):
 2s( 2.00)                                                            
 2p( 3.00)                                                            
Vna: chval, zval:    5.00000   5.00000

Vna:  Cut-off radius for the neutral-atom potential:   4.280232
comcore: Pseudo-core radius Rcore=  1.554824

atom: _________________________________________________________________________

<basis_specs>
===============================================================================
O                    Z=   8    Mass=  16.000        Charge= 0.17977+309
Lmxo=1 Lmxkb= 3    BasisType=split      Semic=F
L=0  Nsemic=0  Cnfigmx=2
          i=1  nzeta=2  polorb=0  (2s)
            splnorm:   0.15000    
               vcte:    0.0000    
               rinn:    0.0000    
               qcoe:    0.0000    
               qyuk:    0.0000    
               qwid:   0.10000E-01
                rcs:    0.0000      0.0000    
            lambdas:    1.0000      1.0000    
L=1  Nsemic=0  Cnfigmx=2
          i=1  nzeta=2  polorb=1  (2p)
            splnorm:   0.15000    
               vcte:    0.0000    
               rinn:    0.0000    
               qcoe:    0.0000    
               qyuk:    0.0000    
               qwid:   0.10000E-01
                rcs:    0.0000      0.0000    
            lambdas:    1.0000      1.0000    
-------------------------------------------------------------------------------
L=0  Nkbl=1  erefs: 0.17977+309
L=1  Nkbl=1  erefs: 0.17977+309
L=2  Nkbl=1  erefs: 0.17977+309
L=3  Nkbl=1  erefs: 0.17977+309
===============================================================================
</basis_specs>

atom: Called for O                     (Z =   8)

read_vps: Pseudopotential generation method:
read_vps: ATM3      Troullier-Martins                       
Valence charge for ps generation:    6.00000

read_vps: Pseudopotential includes a core correction:
read_vps: Pseudo-core for xc-correction

xc_check: Exchange-correlation functional:
xc_check: GGA Perdew, Burke & Ernzerhof 1996
V l=0 = -2*Zval/r beyond r=  1.4482
V l=1 = -2*Zval/r beyond r=  1.4482
V l=2 = -2*Zval/r beyond r=  1.4482
V l=3 = -2*Zval/r beyond r=  1.4482
All V_l potentials equal beyond r=  1.4482
This should be close to max(r_c) in ps generation
All pots = -2*Zval/r beyond r=  1.4482

VLOCAL1: 99.0% of the norm of Vloc inside     20.696 Ry
VLOCAL1: 99.9% of the norm of Vloc inside     47.167 Ry
atom: Maximum radius for 4*pi*r*r*local-pseudopot. charge    1.74697
atom: Maximum radius for r*vlocal+2*Zval:    1.52250
GHOST: No ghost state for L =  0
GHOST: No ghost state for L =  1
GHOST: No ghost state for L =  2
GHOST: No ghost state for L =  3

KBgen: Kleinman-Bylander projectors: 
   l= 0   rc=  1.620715   el= -1.757696   Ekb=  4.880948   kbcos=  0.293490
   l= 1   rc=  1.600578   el= -0.664256   Ekb= -6.909822   kbcos= -0.499892
   l= 2   rc=  1.703827   el=  0.002031   Ekb= -1.539219   kbcos= -0.006778
   l= 3   rc=  1.746967   el=  0.003153   Ekb= -0.568983   kbcos= -0.000967

KBgen: Total number of Kleinman-Bylander projectors:   16
atom: -------------------------------------------------------------------------

atom: SANKEY-TYPE ORBITALS:
atom: Selected multiple-zeta basis: split     

SPLIT: Orbitals with angular momentum L= 0

SPLIT: Basis orbitals for state 2s

SPLIT: PAO cut-off radius determined from an
SPLIT: energy shift=  0.020000 Ry

   izeta = 1
                 lambda =    1.000000
                     rc =    3.305093
                 energy =   -1.740009
                kinetic =    1.602198
    potential(screened) =   -3.342207
       potential(ionic) =  -11.287121

   izeta = 2
                 rmatch =    2.510382
              splitnorm =    0.150000
                 energy =   -1.483129
                kinetic =    2.419988
    potential(screened) =   -3.903117
       potential(ionic) =  -12.432204

SPLIT: Orbitals with angular momentum L= 1

SPLIT: Basis orbitals for state 2p

SPLIT: PAO cut-off radius determined from an
SPLIT: energy shift=  0.020000 Ry

   izeta = 1
                 lambda =    1.000000
                     rc =    3.937239
                 energy =   -0.646301
                kinetic =    4.684247
    potential(screened) =   -5.330548
       potential(ionic) =  -13.029785

   izeta = 2
                 rmatch =    2.541963
              splitnorm =    0.150000
                 energy =   -0.369342
                kinetic =    6.896892
    potential(screened) =   -7.266234
       potential(ionic) =  -15.802088

POLgen: Perturbative polarization orbital with L=  2

POLgen: Polarization orbital for state 2p

   izeta = 1
                     rc =    3.937239
                 energy =    2.419602
                kinetic =    4.834162
    potential(screened) =   -2.414561
       potential(ionic) =   -8.756379
atom: Total number of Sankey-type orbitals: 13

atm_pop: Valence configuration (for local Pseudopot. screening):
 2s( 2.00)                                                            
 2p( 4.00)                                                            
Vna: chval, zval:    6.00000   6.00000

Vna:  Cut-off radius for the neutral-atom potential:   3.937239
comcore: Pseudo-core radius Rcore=  1.377587

atom: _________________________________________________________________________

prinput: Basis input ----------------------------------------------------------

PAO.BasisType split     

%block ChemicalSpeciesLabel
    1    6 C                       # Species index, atomic number, species label
    2    1 H                       # Species index, atomic number, species label
    3    7 N                       # Species index, atomic number, species label
    4    8 O                       # Species index, atomic number, species label
%endblock ChemicalSpeciesLabel

%block PAO.Basis                 # Define Basis set
C                     2                    # Species label, number of l-shells
 n=2   0   2                         # n, l, Nzeta 
   4.088      3.347   
   1.000      1.000   
 n=2   1   2 P   1                   # n, l, Nzeta, Polarization, NzetaPol
   4.870      3.475   
   1.000      1.000   
H                     1                    # Species label, number of l-shells
 n=1   0   1 P   1                   # n, l, Nzeta, Polarization, NzetaPol
   4.709   
   1.000   
N                     2                    # Species label, number of l-shells
 n=2   0   2                         # n, l, Nzeta 
   3.684      2.869   
   1.000      1.000   
 n=2   1   2 P   1                   # n, l, Nzeta, Polarization, NzetaPol
   4.280      2.905   
   1.000      1.000   
O                     2                    # Species label, number of l-shells
 n=2   0   2                         # n, l, Nzeta 
   3.305      2.510   
   1.000      1.000   
 n=2   1   2 P   1                   # n, l, Nzeta, Polarization, NzetaPol
   3.937      2.542   
   1.000      1.000   
%endblock PAO.Basis

prinput: ----------------------------------------------------------------------

Dumping basis to NetCDF file C.ion.nc
Dumping basis to NetCDF file H.ion.nc
Dumping basis to NetCDF file N.ion.nc
Dumping basis to NetCDF file O.ion.nc
coor:   Atomic-coordinates input format  =     Cartesian coordinates
coor:                                          (in Angstroms)

ioxv: Reading coordinates and velocities from file
! Info in XV file prevails over previous structure input
WARNING: NH2-CH2-CN.VERLET_RESTART not found--reading only XV file and moving back 1 time step using Euler

siesta: Atomic coordinates (Bohr) and species
siesta:     -0.53488  -0.31885   0.00000  1        1
siesta:     -0.72568  -1.30769   1.81568  2        2
siesta:     -0.72570  -1.30775  -1.81570  2        3
siesta:      2.07857   1.83058  -0.00000  3        4
siesta:      1.65311   2.54354  -2.29092  2        5
siesta:      1.65311   2.54353   2.29092  2        6
siesta:     -2.90512   1.41408  -0.00000  1        7
siesta:     -2.90512   4.00000  -0.00000  4        8
siesta:     -5.50000   1.41408  -0.00000  4        9
siesta:     -7.40000   1.41408  -0.00000  2       10

siesta: System type = chain     

initatomlists: Number of atoms, orbitals, and projectors:     10    85   125

coxmol: Writing XMOL coordinates into file NH2-CH2-CN.xyz                                                      

siesta: ******************** Simulation parameters ****************************
siesta:
siesta: The following are some of the parameters of the simulation.
siesta: A complete list of the parameters used, including default values,
siesta: can be found in file out.fdf
siesta:
redata: Spin configuration                          = none
redata: Number of spin components                   = 1
redata: Time-Reversal Symmetry                      = T
redata: Spin spiral                                 = F
redata: Long output                                 =   F
redata: Number of Atomic Species                    =        4
redata: Charge density info will appear in .RHO file
redata: Write Mulliken Pop.                         = NO
redata: Matel table size (NRTAB)                    =     1024
redata: Mesh Cutoff                                 =   200.0000 Ry
redata: Net charge of the system                    =     0.0000 |e|
redata: Min. number of SCF Iter                     =        0
redata: Max. number of SCF Iter                     =      150
redata: SCF convergence failure will abort job
redata: SCF mix quantity                            = Hamiltonian
redata: Mix DM or H after convergence               =   F
redata: Recompute H after scf cycle                 =   F
redata: Mix DM in first SCF step                    =   T
redata: Write Pulay info on disk                    =   F
redata: New DM Occupancy tolerance                  = 0.000000000001
redata: No kicks to SCF
redata: DM Mixing Weight for Kicks                  =     0.5000
redata: Require Harris convergence for SCF          =   F
redata: Harris energy tolerance for SCF             =     0.000100 eV
redata: Require DM convergence for SCF              =   T
redata: DM tolerance for SCF                        =     0.000300
redata: Require EDM convergence for SCF             =   F
redata: EDM tolerance for SCF                       =     0.001000 eV
redata: Require H convergence for SCF               =   T
redata: Hamiltonian tolerance for SCF               =     0.001000 eV
redata: Require (free) Energy convergence for SCF   =   F
redata: (free) Energy tolerance for SCF             =     0.000100 eV
redata: Using Saved Data (generic)                  =   F
redata: Use continuation files for DM               =   F
redata: Neglect nonoverlap interactions             =   F
redata: Method of Calculation                       = Diagonalization
redata: Electronic Temperature                      =   290.1109 K
redata: Fix the spin of the system                  =   F
redata: Dynamics option                             = Verlet MD run
redata: Initial MD time step                        =        1
redata:   Final MD time step                        =      100
redata: Length of MD time step                      =     1.0000 fs
redata: Initial Temperature of MD run               =     0.0000 K
redata: Perform a MD quench                         =   F
mix.SCF: Pulay mixing                            = Pulay
mix.SCF:    Variant                              = stable
mix.SCF:    History steps                        = 6
mix.SCF:    Linear mixing weight                 =     0.020000
mix.SCF:    Mixing weight                        =     0.020000
mix.SCF:    SVD condition                        = 0.1000E-07
redata: Save all siesta data in one NC              =   F
redata: ***********************************************************************

%block SCF.Mixers
  Pulay
%endblock SCF.Mixers

%block SCF.Mixer.Pulay
  # Mixing method
  method pulay
  variant stable

  # Mixing options
  weight 0.0200
  weight.linear 0.0200
  history 6
%endblock SCF.Mixer.Pulay

Size of DM history Fstack: 1
Total number of electrons:    30.000000
Total ionic charge:    30.000000

* ProcessorY, Blocksize:    1  24


* Orbital distribution balance (max,min):    85    85

 Kpoints in:            1 . Kpoints trimmed:            1

siesta: k-grid: Number of k-points =     1
siesta: k-grid: Cutoff (effective) =     3.969 Ang
siesta: k-grid: Supercell and displacements
siesta: k-grid:    1   0   0      0.000
siesta: k-grid:    0   1   0      0.000
siesta: k-grid:    0   0   1      0.000

diag: Algorithm                                     = D&C
diag: Parallel over k                               =   F
diag: Use parallel 2D distribution                  =   F
diag: Parallel block-size                           = 24
diag: Parallel distribution                         =     1 x     1
diag: Used triangular part                          = Lower
diag: Absolute tolerance                            =  0.100E-15
diag: Orthogonalization factor                      =  0.100E-05
diag: Memory factor                                 =  1.0000


ts: **************************************************************
ts: Save H and S matrices                           =    F
ts: Save DM and EDM matrices                        =    F
ts: Only save the overlap matrix S                  =    F
ts: **************************************************************

************************ Begin: TS CHECKS AND WARNINGS ************************
************************ End: TS CHECKS AND WARNINGS **************************


                     ====================================
                        Begin MD step =      1
                     ====================================

outcell: Unit cell vectors (Ang):
        7.937655    0.000000    0.000000
        0.000000    7.937655    0.000000
        0.000000    0.000000    7.937655

outcell: Cell vector modules (Ang)   :    7.937655    7.937655    7.937655
outcell: Cell angles (23,13,12) (deg):     90.0000     90.0000     90.0000
outcell: Cell volume (Ang**3)        :    500.1228
Gamma-point calculation with multiply-connected orbital pairs
Gamma-point calculation with multiply-connected orbital pairs
Folding of H and S implicitly performed
Folding of H and S implicitly performed
<dSpData1D:S at geom step 1
  <sparsity:sparsity for geom step 1
    nrows_g=85 nrows=85 sparsity=.9925 nnzs=7171, refcount: 7>
  <dData1D:(new from dSpData1D) n=7171, refcount: 1>
refcount: 1>
new_DM -- step:     1
Initializing Density Matrix...
DM filled with atomic data:
<dSpData2D:DM initialized from atoms
  <sparsity:sparsity for geom step 1
    nrows_g=85 nrows=85 sparsity=.9925 nnzs=7171, refcount: 8>
  <dData2D:DM n=7171 m=1, refcount: 1>
refcount: 1>
No. of atoms with KB's overlaping orbs in proc 0. Max # of overlaps:      10      81
New grid distribution:   1
           1       1:   36    1:   36    1:   36

InitMesh: MESH =    72 x    72 x    72 =      373248
InitMesh: (bp) =    36 x    36 x    36 =       46656
InitMesh: Mesh cutoff (required, used) =   200.000   227.396 Ry
ExtMesh (bp) on 0 =    84 x    84 x    84 =      592704
PhiOnMesh: Number of (b)points on node 0 =                46656
PhiOnMesh: nlist on node 0 =               409079

stepf: Fermi-Dirac step function

siesta: Program's energy decomposition (eV):
siesta: Ebs     =      -322.659752
siesta: Eions   =      2230.571126
siesta: Ena     =       311.690127
siesta: Ekin    =      1098.398439
siesta: Enl     =      -281.349362
siesta: Eso     =         0.000000
siesta: Edftu   =         0.000000
siesta: DEna    =       -11.902528
siesta: DUscf   =         8.676958
siesta: DUext   =         0.000000
siesta: Exc     =      -459.530462
siesta: eta*DQ  =         0.000000
siesta: Emadel  =         0.000000
siesta: Emeta   =         0.000000
siesta: Emolmec =         0.000000
siesta: Ekinion =         0.000000
siesta: Eharris =     -1567.428587
siesta: Etot    =     -1564.587954
siesta: FreeEng =     -1564.587954

        iscf     Eharris(eV)        E_KS(eV)     FreeEng(eV)     dDmax    Ef(eV) dHmax(eV)
   scf:    1    -1567.428587    -1564.587954    -1564.587954  1.867868 -3.349326 10.695799
timer: Routine,Calls,Time,% = IterSCF        1       2.119   8.09
   scf:    2    -1565.539567    -1565.069903    -1565.069903  0.013098 -3.300576 10.002261
   scf:    3    -1567.389109    -1568.082671    -1568.082671  0.335661 -2.706523  2.357186
   scf:    4    -1565.191842    -1566.861124    -1566.861124  0.152691 -2.390727  6.172846
   scf:    5    -1563.353454    -1567.304108    -1567.304108  0.417899 -2.995361  5.999027
   scf:    6    -1568.025897    -1567.679625    -1567.679625  0.025624 -3.023069  4.964718
   scf:    7    -1568.067163    -1568.403579    -1568.403579  0.205264 -2.449738  1.361572
   scf:    8    -1568.347077    -1568.448835    -1568.448835  0.073839 -2.617890  0.935016
   scf:    9    -1568.462765    -1568.455998    -1568.455998  0.005823 -2.606703  0.789520
   scf:   10    -1568.463294    -1568.475205    -1568.475205  0.039637 -2.389565  0.303759
   scf:   11    -1568.474793    -1568.475001    -1568.475001  0.000369 -2.389814  0.314083
   scf:   12    -1568.478196    -1568.478064    -1568.478064  0.008360 -2.434374  0.043943
   scf:   13    -1568.478097    -1568.478096    -1568.478096  0.001086 -2.433922  0.019151
   scf:   14    -1568.478160    -1568.478132    -1568.478132  0.000538 -2.431253  0.014448
   scf:   15    -1568.478143    -1568.478138    -1568.478138  0.000209 -2.430743  0.013698
   scf:   16    -1568.478186    -1568.478170    -1568.478170  0.001482 -2.427975  0.008362
   scf:   17    -1568.478170    -1568.478170    -1568.478170  0.000077 -2.427663  0.008003
   scf:   18    -1568.478170    -1568.478170    -1568.478170  0.000279 -2.424169  0.004120
   scf:   19    -1568.478171    -1568.478170    -1568.478170  0.000035 -2.424166  0.004011
   scf:   20    -1568.478179    -1568.478175    -1568.478175  0.000879 -2.425178  0.001203
   scf:   21    -1568.478175    -1568.478175    -1568.478175  0.000008 -2.425166  0.001154
   scf:   22    -1568.478176    -1568.478176    -1568.478176  0.000061 -2.424845  0.000583

SCF Convergence by DM+H criterion
max |DM_out - DM_in|         :     0.0000613524
max |H_out - H_in|      (eV) :     0.0005829344
SCF cycle converged after 22 iterations

Using DM_out to compute the final energy and forces
No. of atoms with KB's overlaping orbs in proc 0. Max # of overlaps:      10      81

siesta: E_KS(eV) =            -1568.4782

siesta: E_KS - E_eggbox =     -1568.4782

siesta: Atomic forces (eV/Ang):
----------------------------------------
   Tot   -0.023194    0.107390   -0.000016
----------------------------------------
   Max   10.920538
   Res    3.186587    sqrt( Sum f_i^2 / 3N )
----------------------------------------
   Max   10.920538    constrained

Stress tensor Voigt[x,y,z,yz,xz,xy] (kbar):       24.65       22.52       39.21        0.00        0.00      -19.03
(Free)E + p*V (eV/cell)    -1577.4662
Target enthalpy (eV/cell)    -1568.4782

siesta: Stress tensor (static) (eV/Ang**3):
         0.015388   -0.011879    0.000000
        -0.011879    0.014057    0.000001
         0.000000    0.000001    0.024470

siesta: Pressure (static):        -28.79393686  kBar

siesta: Stress tensor (total) (eV/Ang**3):
         0.015388   -0.011879    0.000000
        -0.011879    0.014057    0.000001
         0.000000    0.000001    0.024470

siesta: Pressure (total):        -28.79393686  kBar

siesta: Temp_ion =       0.000 K

                     ====================================
                        Begin MD step =      2
                     ====================================

outcell: Unit cell vectors (Ang):
        7.937655    0.000000    0.000000
        0.000000    7.937655    0.000000
        0.000000    0.000000    7.937655

outcell: Cell vector modules (Ang)   :    7.937655    7.937655    7.937655
outcell: Cell angles (23,13,12) (deg):     90.0000     90.0000     90.0000
outcell: Cell volume (Ang**3)        :    500.1228
Gamma-point calculation with multiply-connected orbital pairs
Gamma-point calculation with multiply-connected orbital pairs
Folding of H and S implicitly performed
Folding of H and S implicitly performed
<dSpData1D:S at geom step 2
  <sparsity:sparsity for geom step 2
    nrows_g=85 nrows=85 sparsity=.9925 nnzs=7171, refcount: 7>
  <dData1D:(new from dSpData1D) n=7171, refcount: 1>
refcount: 1>
new_DM -- step:     2
Re-using DM from previous geometries...
Number of DMs in history: 1
 DM extrapolation coefficients: 
1   1.00000
New DM after history re-use:
<dSpData2D:SpM extrapolated using coords
  <sparsity:sparsity for geom step 2
    nrows_g=85 nrows=85 sparsity=.9925 nnzs=7171, refcount: 9>
  <dData2D:(temp array for extrapolation) n=7171 m=1, refcount: 1>
refcount: 1>
Note: For starting DM, Qtot, Tr[D*S] =         30.00000000         30.03939931
No. of atoms with KB's overlaping orbs in proc 0. Max # of overlaps:      10      81
New grid distribution:   1
           1       1:   36    1:   36    1:   36

InitMesh: MESH =    72 x    72 x    72 =      373248
InitMesh: (bp) =    36 x    36 x    36 =       46656
InitMesh: Mesh cutoff (required, used) =   200.000   227.396 Ry
ExtMesh (bp) on 0 =    84 x    84 x    84 =      592704
PhiOnMesh: Number of (b)points on node 0 =                46656
PhiOnMesh: nlist on node 0 =               409168

        iscf     Eharris(eV)        E_KS(eV)     FreeEng(eV)     dDmax    Ef(eV) dHmax(eV)
   scf:    1    -1568.680358    -1568.811312    -1568.811312  0.024768 -2.256615  0.584598
   scf:    2    -1568.408859    -1568.695805    -1568.695805  0.044802 -2.464458  1.854562
   scf:    3    -1568.861218    -1568.824960    -1568.824960  0.033021 -2.190559  0.108250
   scf:    4    -1568.825569    -1568.825473    -1568.825473  0.002490 -2.176249  0.029399
   scf:    5    -1568.825454    -1568.825471    -1568.825471  0.000864 -2.170318  0.048869
   scf:    6    -1568.825620    -1568.825579    -1568.825579  0.001804 -2.167502  0.006495
   scf:    7    -1568.825570    -1568.825579    -1568.825579  0.000346 -2.166764  0.016216
   scf:    8    -1568.825591    -1568.825587    -1568.825587  0.000235 -2.167788  0.003921
   scf:    9    -1568.825589    -1568.825588    -1568.825588  0.000129 -2.167361  0.000654

SCF Convergence by DM+H criterion
max |DM_out - DM_in|         :     0.0001286301
max |H_out - H_in|      (eV) :     0.0006535930
SCF cycle converged after 9 iterations

Using DM_out to compute the final energy and forces
No. of atoms with KB's overlaping orbs in proc 0. Max # of overlaps:      10      81

siesta: E_KS(eV) =            -1568.8256

siesta: Atomic forces (eV/Ang):
----------------------------------------
   Tot   -0.027899    0.090877   -0.000018
----------------------------------------
   Max   10.735994
   Res    3.138646    sqrt( Sum f_i^2 / 3N )
----------------------------------------
   Max   10.735994    constrained

Stress tensor Voigt[x,y,z,yz,xz,xy] (kbar):       24.48       22.33       38.25        0.00        0.00      -18.89
(Free)E + p*V (eV/cell)    -1577.6763
Target enthalpy (eV/cell)    -1568.8256

siesta: Stress tensor (static) (eV/Ang**3):
         0.015280   -0.011790    0.000000
        -0.011791    0.013938    0.000001
         0.000000    0.000001    0.023873

siesta: Pressure (static):        -28.35430386  kBar

siesta: Stress tensor (total) (eV/Ang**3):
         0.015280   -0.011790    0.000000
        -0.011791    0.013938    0.000001
         0.000000    0.000001    0.023873

siesta: Pressure (total):        -28.35430386  kBar

siesta: Temp_ion =     295.966 K

                     ====================================
                        Begin MD step =      3
                     ====================================

outcell: Unit cell vectors (Ang):
        7.937655    0.000000    0.000000
        0.000000    7.937655    0.000000
        0.000000    0.000000    7.937655

outcell: Cell vector modules (Ang)   :    7.937655    7.937655    7.937655
outcell: Cell angles (23,13,12) (deg):     90.0000     90.0000     90.0000
outcell: Cell volume (Ang**3)        :    500.1228
Gamma-point calculation with multiply-connected orbital pairs
Gamma-point calculation with multiply-connected orbital pairs
Folding of H and S implicitly performed
Folding of H and S implicitly performed
<dSpData1D:S at geom step 3
  <sparsity:sparsity for geom step 3
    nrows_g=85 nrows=85 sparsity=.9925 nnzs=7171, refcount: 7>
  <dData1D:(new from dSpData1D) n=7171, refcount: 1>
refcount: 1>
new_DM -- step:     3
Re-using DM from previous geometries...
Number of DMs in history: 1
 DM extrapolation coefficients: 
1   1.00000
New DM after history re-use:
<dSpData2D:SpM extrapolated using coords
  <sparsity:sparsity for geom step 3
    nrows_g=85 nrows=85 sparsity=.9925 nnzs=7171, refcount: 9>
  <dData2D:(temp array for extrapolation) n=7171 m=1, refcount: 1>
refcount: 1>
Note: For starting DM, Qtot, Tr[D*S] =         30.00000000         30.11412510
No. of atoms with KB's overlaping orbs in proc 0. Max # of overlaps:      10      81
New grid distribution:   1
           1       1:   36    1:   36    1:   36

InitMesh: MESH =    72 x    72 x    72 =      373248
InitMesh: (bp) =    36 x    36 x    36 =       46656
InitMesh: Mesh cutoff (required, used) =   200.000   227.396 Ry
ExtMesh (bp) on 0 =    84 x    84 x    84 =      592704
PhiOnMesh: Number of (b)points on node 0 =                46656
PhiOnMesh: nlist on node 0 =               409119

        iscf     Eharris(eV)        E_KS(eV)     FreeEng(eV)     dDmax    Ef(eV) dHmax(eV)
   scf:    1    -1569.116895    -1569.690422    -1569.690422  0.061113 -2.485276  1.638241
   scf:    2    -1566.925709    -1568.910519    -1568.910519  0.128679 -1.803539  4.691129
   scf:    3    -1570.064833    -1569.799100    -1569.799100  0.092737 -2.289714  0.345225
   scf:    4    -1569.803268    -1569.801588    -1569.801588  0.004133 -2.290653  0.218923
   scf:    5    -1569.803912    -1569.803433    -1569.803433  0.005540 -2.253270  0.071287
   scf:    6    -1569.804620    -1569.804244    -1569.804244  0.004495 -2.231862  0.021617
   scf:    7    -1569.804244    -1569.804244    -1569.804244  0.000012 -2.231863  0.021753
   scf:    8    -1569.804290    -1569.804285    -1569.804285  0.000736 -2.231684  0.010199
   scf:    9    -1569.804297    -1569.804294    -1569.804294  0.000326 -2.230343  0.004282
   scf:   10    -1569.804296    -1569.804295    -1569.804295  0.000079 -2.231071  0.001468
   scf:   11    -1569.804295    -1569.804295    -1569.804295  0.000003 -2.231051  0.001419
   scf:   12    -1569.804296    -1569.804296    -1569.804296  0.000080 -2.230304  0.001073
   scf:   13    -1569.804296    -1569.804296    -1569.804296  0.000044 -2.230204  0.000261

SCF Convergence by DM+H criterion
max |DM_out - DM_in|         :     0.0000444306
max |H_out - H_in|      (eV) :     0.0002614016
SCF cycle converged after 13 iterations

Using DM_out to compute the final energy and forces
No. of atoms with KB's overlaping orbs in proc 0. Max # of overlaps:      10      81

siesta: E_KS(eV) =            -1569.8043

siesta: Atomic forces (eV/Ang):
----------------------------------------
   Tot    0.011098    0.057887   -0.000009
----------------------------------------
   Max   10.145612
   Res    2.964396    sqrt( Sum f_i^2 / 3N )
----------------------------------------
   Max   10.145612    constrained

Stress tensor Voigt[x,y,z,yz,xz,xy] (kbar):       23.71       20.95       31.61        0.00        0.00      -18.36
(Free)E + p*V (eV/cell)    -1577.7397
Target enthalpy (eV/cell)    -1569.8043

siesta: Stress tensor (static) (eV/Ang**3):
         0.014903   -0.011543    0.000000
        -0.011543    0.013403    0.000000
         0.000000    0.000000    0.020662

siesta: Pressure (static):        -26.15195209  kBar

siesta: Stress tensor (total) (eV/Ang**3):
         0.014798   -0.011456    0.000000
        -0.011456    0.013076    0.000000
         0.000000    0.000000    0.019727

siesta: Pressure (total):        -25.42193042  kBar

siesta: Temp_ion =    1120.964 K

                     ====================================
                        Begin MD step =      4
                     ====================================

outcell: Unit cell vectors (Ang):
        7.937655    0.000000    0.000000
        0.000000    7.937655    0.000000
        0.000000    0.000000    7.937655

outcell: Cell vector modules (Ang)   :    7.937655    7.937655    7.937655
outcell: Cell angles (23,13,12) (deg):     90.0000     90.0000     90.0000
outcell: Cell volume (Ang**3)        :    500.1228
Gamma-point calculation with multiply-connected orbital pairs
Gamma-point calculation with multiply-connected orbital pairs
Folding of H and S implicitly performed
Folding of H and S implicitly performed
<dSpData1D:S at geom step 4
  <sparsity:sparsity for geom step 4
    nrows_g=85 nrows=85 sparsity=.9942 nnzs=7183, refcount: 7>
  <dData1D:(new from dSpData1D) n=7183, refcount: 1>
refcount: 1>
new_DM -- step:     4
Re-using DM from previous geometries...
Number of DMs in history: 1
 DM extrapolation coefficients: 
1   1.00000
New DM after history re-use:
<dSpData2D:SpM extrapolated using coords
  <sparsity:sparsity for geom step 4
    nrows_g=85 nrows=85 sparsity=.9942 nnzs=7183, refcount: 9>
  <dData2D:(temp array for extrapolation) n=7183 m=1, refcount: 1>
refcount: 1>
Note: For starting DM, Qtot, Tr[D*S] =         30.00000000         30.17172337
No. of atoms with KB's overlaping orbs in proc 0. Max # of overlaps:      10      81
New grid distribution:   1
           1       1:   36    1:   36    1:   36

InitMesh: MESH =    72 x    72 x    72 =      373248
InitMesh: (bp) =    36 x    36 x    36 =       46656
InitMesh: Mesh cutoff (required, used) =   200.000   227.396 Ry
ExtMesh (bp) on 0 =    84 x    84 x    84 =      592704
PhiOnMesh: Number of (b)points on node 0 =                46656
PhiOnMesh: nlist on node 0 =               409225

        iscf     Eharris(eV)        E_KS(eV)     FreeEng(eV)     dDmax    Ef(eV) dHmax(eV)
   scf:    1    -1569.734312    -1570.865207    -1570.865207  0.086567 -2.598417  2.329630
   scf:    2    -1565.784162    -1569.455428    -1569.455428  0.195684 -1.672608  5.916006
   scf:    3    -1571.607034    -1571.092425    -1571.092425  0.137905 -2.312819  0.555588
   scf:    4    -1571.100259    -1571.097108    -1571.097108  0.006101 -2.322581  0.389436
   scf:    5    -1571.104505    -1571.102469    -1571.102469  0.007850 -2.271308  0.144708
   scf:    6    -1571.105054    -1571.104197    -1571.104197  0.005611 -2.241848  0.031965
   scf:    7    -1571.104193    -1571.104197    -1571.104197  0.000430 -2.242686  0.028650
   scf:    8    -1571.104272    -1571.104264    -1571.104264  0.000893 -2.243606  0.013198
   scf:    9    -1571.104147    -1571.104234    -1571.104234  0.001460 -2.242632  0.037023
   scf:   10    -1571.104295    -1571.104281    -1571.104281  0.001017 -2.243135  0.002892
   scf:   11    -1571.104282    -1571.104282    -1571.104282  0.000005 -2.243090  0.002778
   scf:   12    -1571.104284    -1571.104283    -1571.104283  0.000123 -2.242002  0.000506

SCF Convergence by DM+H criterion
max |DM_out - DM_in|         :     0.0001230428
max |H_out - H_in|      (eV) :     0.0005061028
SCF cycle converged after 12 iterations

Using DM_out to compute the final energy and forces
No. of atoms with KB's overlaping orbs in proc 0. Max # of overlaps:      10      81

siesta: E_KS(eV) =            -1571.1043

siesta: Atomic forces (eV/Ang):
----------------------------------------
   Tot   -0.012757    0.020650    0.000005
----------------------------------------
   Max    9.067929
   Res    2.628578    sqrt( Sum f_i^2 / 3N )
----------------------------------------
   Max    9.067929    constrained

Stress tensor Voigt[x,y,z,yz,xz,xy] (kbar):       23.05       17.13       14.48       -0.00        0.00      -16.57
(Free)E + p*V (eV/cell)    -1576.7918
Target enthalpy (eV/cell)    -1571.1043

siesta: Stress tensor (static) (eV/Ang**3):
         0.014786   -0.010661    0.000000
        -0.010661    0.011953   -0.000000
         0.000000   -0.000000    0.012556

siesta: Pressure (static):        -20.98561656  kBar

siesta: Stress tensor (total) (eV/Ang**3):
         0.014387   -0.010339    0.000000
        -0.010340    0.010695   -0.000000
         0.000000   -0.000000    0.009035

siesta: Pressure (total):        -18.22067804  kBar

siesta: Temp_ion =    2190.328 K

                     ====================================
                        Begin MD step =      5
                     ====================================

outcell: Unit cell vectors (Ang):
        7.937655    0.000000    0.000000
        0.000000    7.937655    0.000000
        0.000000    0.000000    7.937655

outcell: Cell vector modules (Ang)   :    7.937655    7.937655    7.937655
outcell: Cell angles (23,13,12) (deg):     90.0000     90.0000     90.0000
outcell: Cell volume (Ang**3)        :    500.1228
Gamma-point calculation with multiply-connected orbital pairs
Gamma-point calculation with multiply-connected orbital pairs
Folding of H and S implicitly performed
Folding of H and S implicitly performed
<dSpData1D:S at geom step 5
  <sparsity:sparsity for geom step 5
    nrows_g=85 nrows=85 sparsity=.9945 nnzs=7185, refcount: 7>
  <dData1D:(new from dSpData1D) n=7185, refcount: 1>
refcount: 1>
new_DM -- step:     5
Re-using DM from previous geometries...
Number of DMs in history: 1
 DM extrapolation coefficients: 
1   1.00000
New DM after history re-use:
<dSpData2D:SpM extrapolated using coords
  <sparsity:sparsity for geom step 5
    nrows_g=85 nrows=85 sparsity=.9945 nnzs=7185, refcount: 9>
  <dData2D:(temp array for extrapolation) n=7185 m=1, refcount: 1>
refcount: 1>
Note: For starting DM, Qtot, Tr[D*S] =         30.00000000         30.18603914
No. of atoms with KB's overlaping orbs in proc 0. Max # of overlaps:      10      81
New grid distribution:   1
           1       1:   36    1:   36    1:   36

InitMesh: MESH =    72 x    72 x    72 =      373248
InitMesh: (bp) =    36 x    36 x    36 =       46656
InitMesh: Mesh cutoff (required, used) =   200.000   227.396 Ry
ExtMesh (bp) on 0 =    84 x    84 x    84 =      592704
PhiOnMesh: Number of (b)points on node 0 =                46656
PhiOnMesh: nlist on node 0 =               409436

        iscf     Eharris(eV)        E_KS(eV)     FreeEng(eV)     dDmax    Ef(eV) dHmax(eV)
   scf:    1    -1570.338407    -1571.710824    -1571.710824  0.168628 -2.377692  1.957220
   scf:    2    -1566.789094    -1570.341408    -1570.341408  0.230556 -1.657604  4.585204
   scf:    3    -1572.421455    -1571.925725    -1571.925725  0.160952 -2.130471  0.610072
   scf:    4    -1571.931678    -1571.928911    -1571.928911  0.003441 -2.134621  0.501523
   scf:    5    -1571.942425    -1571.938469    -1571.938469  0.009855 -2.087853  0.160256
   scf:    6    -1571.941283    -1571.940255    -1571.940255  0.005970 -2.070094  0.033904
   scf:    7    -1571.940239    -1571.940252    -1571.940252  0.000636 -2.071405  0.025893
   scf:    8    -1571.940327    -1571.940319    -1571.940319  0.001110 -2.074811  0.017356
   scf:    9    -1571.940093    -1571.940259    -1571.940259  0.001915 -2.072866  0.050721
   scf:   10    -1571.940366    -1571.940341    -1571.940341  0.001455 -2.073993  0.002819
   scf:   11    -1571.940342    -1571.940341    -1571.940341  0.000008 -2.073949  0.002633
   scf:   12    -1571.940343    -1571.940342    -1571.940342  0.000134 -2.073120  0.000411

SCF Convergence by DM+H criterion
max |DM_out - DM_in|         :     0.0001340403
max |H_out - H_in|      (eV) :     0.0004112525
SCF cycle converged after 12 iterations

Using DM_out to compute the final energy and forces
No. of atoms with KB's overlaping orbs in proc 0. Max # of overlaps:      10      81

siesta: E_KS(eV) =            -1571.9403

siesta: Atomic forces (eV/Ang):
----------------------------------------
   Tot   -0.003067   -0.024129    0.000007
----------------------------------------
   Max    7.334060
   Res    2.459593    sqrt( Sum f_i^2 / 3N )
----------------------------------------
   Max    7.334060    constrained

Stress tensor Voigt[x,y,z,yz,xz,xy] (kbar):       22.53        8.23      -15.06       -0.00       -0.00      -12.97
(Free)E + p*V (eV/cell)    -1573.5749
Target enthalpy (eV/cell)    -1571.9403

siesta: Stress tensor (static) (eV/Ang**3):
         0.014890   -0.008721    0.000000
        -0.008721    0.007809   -0.000000
         0.000000   -0.000000   -0.002778

siesta: Pressure (static):        -10.63892252  kBar

siesta: Stress tensor (total) (eV/Ang**3):
         0.014065   -0.008094   -0.000000
        -0.008094    0.005137   -0.000000
        -0.000000   -0.000000   -0.009397

siesta: Pressure (total):         -5.23632089  kBar

siesta: Temp_ion =    2853.931 K

                     ====================================
                        Begin MD step =      6
                     ====================================

outcell: Unit cell vectors (Ang):
        7.937655    0.000000    0.000000
        0.000000    7.937655    0.000000
        0.000000    0.000000    7.937655

outcell: Cell vector modules (Ang)   :    7.937655    7.937655    7.937655
outcell: Cell angles (23,13,12) (deg):     90.0000     90.0000     90.0000
outcell: Cell volume (Ang**3)        :    500.1228
Gamma-point calculation with multiply-connected orbital pairs
Gamma-point calculation with multiply-connected orbital pairs
Folding of H and S implicitly performed
Folding of H and S implicitly performed
<dSpData1D:S at geom step 6
  <sparsity:sparsity for geom step 6
    nrows_g=85 nrows=85 sparsity=.9945 nnzs=7185, refcount: 7>
  <dData1D:(new from dSpData1D) n=7185, refcount: 1>
refcount: 1>
new_DM -- step:     6
Re-using DM from previous geometries...
Number of DMs in history: 1
 DM extrapolation coefficients: 
1   1.00000
New DM after history re-use:
<dSpData2D:SpM extrapolated using coords
  <sparsity:sparsity for geom step 6
    nrows_g=85 nrows=85 sparsity=.9945 nnzs=7185, refcount: 9>
  <dData2D:(temp array for extrapolation) n=7185 m=1, refcount: 1>
refcount: 1>
Note: For starting DM, Qtot, Tr[D*S] =         30.00000000         30.12861437
No. of atoms with KB's overlaping orbs in proc 0. Max # of overlaps:      10      81
New grid distribution:   1
           1       1:   36    1:   36    1:   36

InitMesh: MESH =    72 x    72 x    72 =      373248
InitMesh: (bp) =    36 x    36 x    36 =       46656
InitMesh: Mesh cutoff (required, used) =   200.000   227.396 Ry
ExtMesh (bp) on 0 =    84 x    84 x    84 =      592704
PhiOnMesh: Number of (b)points on node 0 =                46656
PhiOnMesh: nlist on node 0 =               409373

        iscf     Eharris(eV)        E_KS(eV)     FreeEng(eV)     dDmax    Ef(eV) dHmax(eV)
   scf:    1    -1570.485704    -1571.635839    -1571.635839  0.194979 -1.735908  1.911280
   scf:    2    -1567.865382    -1570.563979    -1570.563979  0.220552 -3.814370  6.017715
   scf:    3    -1572.126447    -1571.770531    -1571.770531  0.154929 -3.623630  0.264639
   scf:    4    -1571.773555    -1571.772209    -1571.772209  0.003129 -3.624403  0.179949
   scf:    5    -1571.780707    -1571.778425    -1571.778425  0.010494 -3.642252  0.099605
   scf:    6    -1571.779545    -1571.779220    -1571.779220  0.004985 -3.651974  0.021434
   scf:    7    -1571.779219    -1571.779221    -1571.779221  0.000275 -3.651392  0.020255
   scf:    8    -1571.779296    -1571.779264    -1571.779264  0.001091 -3.650898  0.008810
   scf:    9    -1571.779274    -1571.779271    -1571.779271  0.000515 -3.650860  0.006230
   scf:   10    -1571.779273    -1571.779272    -1571.779272  0.000106 -3.651315  0.000895

SCF Convergence by DM+H criterion
max |DM_out - DM_in|         :     0.0001060356
max |H_out - H_in|      (eV) :     0.0008946194
SCF cycle converged after 10 iterations

Using DM_out to compute the final energy and forces
No. of atoms with KB's overlaping orbs in proc 0. Max # of overlaps:      10      81

siesta: E_KS(eV) =            -1571.7793

siesta: Atomic forces (eV/Ang):
----------------------------------------
   Tot    0.018673   -0.038458    0.000008
----------------------------------------
   Max   11.909733
   Res    3.434936    sqrt( Sum f_i^2 / 3N )
----------------------------------------
   Max   11.909733    constrained

Stress tensor Voigt[x,y,z,yz,xz,xy] (kbar):       22.73       -8.58      -40.37       -0.00        0.00       -7.55
(Free)E + p*V (eV/cell)    -1569.0514
Target enthalpy (eV/cell)    -1571.7793

siesta: Stress tensor (static) (eV/Ang**3):
         0.015493   -0.005619    0.000000
        -0.005619   -0.000813   -0.000001
         0.000000   -0.000001   -0.017862

siesta: Pressure (static):          1.69947766  kBar

siesta: Stress tensor (total) (eV/Ang**3):
         0.014188   -0.004709    0.000000
        -0.004709   -0.005353   -0.000001
         0.000000   -0.000001   -0.025198

siesta: Pressure (total):          8.73890236  kBar

siesta: Temp_ion =    2829.034 K

                     ====================================
                        Begin MD step =      7
                     ====================================

outcell: Unit cell vectors (Ang):
        7.937655    0.000000    0.000000
        0.000000    7.937655    0.000000
        0.000000    0.000000    7.937655

outcell: Cell vector modules (Ang)   :    7.937655    7.937655    7.937655
outcell: Cell angles (23,13,12) (deg):     90.0000     90.0000     90.0000
outcell: Cell volume (Ang**3)        :    500.1228
Gamma-point calculation with multiply-connected orbital pairs
Gamma-point calculation with multiply-connected orbital pairs
Folding of H and S implicitly performed
Folding of H and S implicitly performed
<dSpData1D:S at geom step 7
  <sparsity:sparsity for geom step 7
    nrows_g=85 nrows=85 sparsity=.9945 nnzs=7185, refcount: 7>
  <dData1D:(new from dSpData1D) n=7185, refcount: 1>
refcount: 1>
new_DM -- step:     7
Re-using DM from previous geometries...
Number of DMs in history: 1
 DM extrapolation coefficients: 
1   1.00000
New DM after history re-use:
<dSpData2D:SpM extrapolated using coords
  <sparsity:sparsity for geom step 7
    nrows_g=85 nrows=85 sparsity=.9945 nnzs=7185, refcount: 9>
  <dData2D:(temp array for extrapolation) n=7185 m=1, refcount: 1>
refcount: 1>
Note: For starting DM, Qtot, Tr[D*S] =         30.00000000         30.03012061
No. of atoms with KB's overlaping orbs in proc 0. Max # of overlaps:      10      81
New grid distribution:   1
           1       1:   36    1:   36    1:   36

InitMesh: MESH =    72 x    72 x    72 =      373248
InitMesh: (bp) =    36 x    36 x    36 =       46656
InitMesh: Mesh cutoff (required, used) =   200.000   227.396 Ry
ExtMesh (bp) on 0 =    84 x    84 x    84 =      592704
PhiOnMesh: Number of (b)points on node 0 =                46656
PhiOnMesh: nlist on node 0 =               408964

        iscf     Eharris(eV)        E_KS(eV)     FreeEng(eV)     dDmax    Ef(eV) dHmax(eV)
   scf:    1    -1571.374334    -1572.092487    -1572.092487  0.135716 -2.815740  3.141522
   scf:    2    -1567.698119    -1570.895863    -1570.895863  0.179099 -4.191616  7.611899
   scf:    3    -1572.817203    -1572.309124    -1572.309124  0.119759 -3.159928  0.483144
   scf:    4    -1572.317142    -1572.313447    -1572.313447  0.003708 -3.148684  0.415832
   scf:    5    -1572.326105    -1572.323536    -1572.323536  0.011371 -3.261003  0.087310
   scf:    6    -1572.324805    -1572.324415    -1572.324415  0.006577 -3.312474  0.080165
   scf:    7    -1572.324534    -1572.324478    -1572.324478  0.000331 -3.307068  0.061216
   scf:    8    -1572.324685    -1572.324627    -1572.324627  0.001703 -3.294750  0.009594
   scf:    9    -1572.324629    -1572.324629    -1572.324629  0.000070 -3.295932  0.006854
   scf:   10    -1572.324641    -1572.324636    -1572.324636  0.000530 -3.295600  0.001783
   scf:   11    -1572.324636    -1572.324636    -1572.324636  0.000007 -3.295603  0.001751
   scf:   12    -1572.324637    -1572.324637    -1572.324637  0.000124 -3.295734  0.001107
   scf:   13    -1572.324637    -1572.324637    -1572.324637  0.000024 -3.295601  0.000552

SCF Convergence by DM+H criterion
max |DM_out - DM_in|         :     0.0000242547
max |H_out - H_in|      (eV) :     0.0005520595
SCF cycle converged after 13 iterations

Using DM_out to compute the final energy and forces
No. of atoms with KB's overlaping orbs in proc 0. Max # of overlaps:      10      81

siesta: E_KS(eV) =            -1572.3246

siesta: Atomic forces (eV/Ang):
----------------------------------------
   Tot   -0.003763   -0.005600   -0.000131
----------------------------------------
   Max   11.029636
   Res    3.109005    sqrt( Sum f_i^2 / 3N )
----------------------------------------
   Max   11.029636    constrained

Stress tensor Voigt[x,y,z,yz,xz,xy] (kbar):       24.74      -23.40      -31.47       -0.00        0.00       -5.40
(Free)E + p*V (eV/cell)    -1569.1897
Target enthalpy (eV/cell)    -1572.3246

siesta: Stress tensor (static) (eV/Ang**3):
         0.017254   -0.004636    0.000000
        -0.004637   -0.007105   -0.000001
         0.000000   -0.000001   -0.015888

siesta: Pressure (static):          3.06495516  kBar

siesta: Stress tensor (total) (eV/Ang**3):
         0.015439   -0.003370    0.000000
        -0.003371   -0.014602   -0.000001
         0.000000   -0.000001   -0.019642

siesta: Pressure (total):         10.04296927  kBar

siesta: Temp_ion =    3263.744 K

                     ====================================
                        Begin MD step =      8
                     ====================================

outcell: Unit cell vectors (Ang):
        7.937655    0.000000    0.000000
        0.000000    7.937655    0.000000
        0.000000    0.000000    7.937655

outcell: Cell vector modules (Ang)   :    7.937655    7.937655    7.937655
outcell: Cell angles (23,13,12) (deg):     90.0000     90.0000     90.0000
outcell: Cell volume (Ang**3)        :    500.1228
Gamma-point calculation with multiply-connected orbital pairs
Gamma-point calculation with multiply-connected orbital pairs
Folding of H and S implicitly performed
Folding of H and S implicitly performed
<dSpData1D:S at geom step 8
  <sparsity:sparsity for geom step 8
    nrows_g=85 nrows=85 sparsity=.9945 nnzs=7185, refcount: 7>
  <dData1D:(new from dSpData1D) n=7185, refcount: 1>
refcount: 1>
new_DM -- step:     8
Re-using DM from previous geometries...
Number of DMs in history: 1
 DM extrapolation coefficients: 
1   1.00000
New DM after history re-use:
<dSpData2D:SpM extrapolated using coords
  <sparsity:sparsity for geom step 8
    nrows_g=85 nrows=85 sparsity=.9945 nnzs=7185, refcount: 9>
  <dData2D:(temp array for extrapolation) n=7185 m=1, refcount: 1>
refcount: 1>
Note: For starting DM, Qtot, Tr[D*S] =         30.00000000         29.96542458
No. of atoms with KB's overlaping orbs in proc 0. Max # of overlaps:      10      81
New grid distribution:   1
           1       1:   36    1:   36    1:   36

InitMesh: MESH =    72 x    72 x    72 =      373248
InitMesh: (bp) =    36 x    36 x    36 =       46656
InitMesh: Mesh cutoff (required, used) =   200.000   227.396 Ry
ExtMesh (bp) on 0 =    84 x    84 x    84 =      592704
PhiOnMesh: Number of (b)points on node 0 =                46656
PhiOnMesh: nlist on node 0 =               409124

        iscf     Eharris(eV)        E_KS(eV)     FreeEng(eV)     dDmax    Ef(eV) dHmax(eV)
   scf:    1    -1572.806269    -1572.902791    -1572.902791  0.164181 -2.172761  3.635071
   scf:    2    -1568.323304    -1571.702010    -1571.702010  0.157063 -4.263330  7.776236
   scf:    3    -1573.765702    -1573.190861    -1573.190861  0.106789 -2.815294  0.568839
   scf:    4    -1573.193502    -1573.192198    -1573.192198  0.000698 -2.810888  0.556328
   scf:    5    -1573.210712    -1573.207633    -1573.207633  0.016201 -2.910895  0.123455
   scf:    6    -1573.209405    -1573.208751    -1573.208751  0.004035 -2.968649  0.059628
mix: Pulay -- inversion failed, > SVD [rank/size] 4 / 5
   scf:    7    -1573.208919    -1573.208851    -1573.208851  0.000547 -2.955238  0.030526
   scf:    8    -1573.209110    -1573.209004    -1573.209004  0.002116 -2.959324  0.009562
   scf:    9    -1573.209003    -1573.209004    -1573.209004  0.000138 -2.960449  0.007813
   scf:   10    -1573.209017    -1573.209012    -1573.209012  0.000446 -2.961443  0.002138
   scf:   11    -1573.209012    -1573.209012    -1573.209012  0.000005 -2.961447  0.002035
   scf:   12    -1573.209013    -1573.209013    -1573.209013  0.000094 -2.961412  0.001422
   scf:   13    -1573.209013    -1573.209013    -1573.209013  0.000016 -2.961353  0.001532
   scf:   14    -1573.209013    -1573.209013    -1573.209013  0.000032 -2.961434  0.001599
   scf:   15    -1573.209013    -1573.209013    -1573.209013  0.000030 -2.961515  0.001209
   scf:   16    -1573.209013    -1573.209013    -1573.209013  0.000002 -2.961518  0.001116
   scf:   17    -1573.209013    -1573.209013    -1573.209013  0.000027 -2.961708  0.000263

SCF Convergence by DM+H criterion
max |DM_out - DM_in|         :     0.0000270371
max |H_out - H_in|      (eV) :     0.0002632154
SCF cycle converged after 17 iterations

Using DM_out to compute the final energy and forces
No. of atoms with KB's overlaping orbs in proc 0. Max # of overlaps:      10      81

siesta: E_KS(eV) =            -1573.2090

siesta: Atomic forces (eV/Ang):
----------------------------------------
   Tot    0.048550   -0.028654    0.000009
----------------------------------------
   Max    5.741437
   Res    1.869380    sqrt( Sum f_i^2 / 3N )
----------------------------------------
   Max    5.741437    constrained

Stress tensor Voigt[x,y,z,yz,xz,xy] (kbar):       27.06      -28.14      -10.72       -0.00        0.00       -8.38
(Free)E + p*V (eV/cell)    -1571.9816
Target enthalpy (eV/cell)    -1573.2090

siesta: Stress tensor (static) (eV/Ang**3):
         0.019380   -0.007214    0.000000
        -0.007214   -0.005534   -0.000001
         0.000000   -0.000001   -0.006136

siesta: Pressure (static):         -4.11801638  kBar

siesta: Stress tensor (total) (eV/Ang**3):
         0.016892   -0.005230    0.000000
        -0.005230   -0.017563   -0.000001
         0.000000   -0.000001   -0.006691

siesta: Pressure (total):          3.93224166  kBar

siesta: Temp_ion =    3934.052 K

                     ====================================
                        Begin MD step =      9
                     ====================================

outcell: Unit cell vectors (Ang):
        7.937655    0.000000    0.000000
        0.000000    7.937655    0.000000
        0.000000    0.000000    7.937655

outcell: Cell vector modules (Ang)   :    7.937655    7.937655    7.937655
outcell: Cell angles (23,13,12) (deg):     90.0000     90.0000     90.0000
outcell: Cell volume (Ang**3)        :    500.1228
Gamma-point calculation with multiply-connected orbital pairs
Gamma-point calculation with multiply-connected orbital pairs
Folding of H and S implicitly performed
Folding of H and S implicitly performed
<dSpData1D:S at geom step 9
  <sparsity:sparsity for geom step 9
    nrows_g=85 nrows=85 sparsity=.9945 nnzs=7185, refcount: 7>
  <dData1D:(new from dSpData1D) n=7185, refcount: 1>
refcount: 1>
new_DM -- step:     9
Re-using DM from previous geometries...
Number of DMs in history: 1
 DM extrapolation coefficients: 
1   1.00000
New DM after history re-use:
<dSpData2D:SpM extrapolated using coords
  <sparsity:sparsity for geom step 9
    nrows_g=85 nrows=85 sparsity=.9945 nnzs=7185, refcount: 9>
  <dData2D:(temp array for extrapolation) n=7185 m=1, refcount: 1>
refcount: 1>
Note: For starting DM, Qtot, Tr[D*S] =         30.00000000         29.92990755
No. of atoms with KB's overlaping orbs in proc 0. Max # of overlaps:      10      81
New grid distribution:   1
           1       1:   36    1:   36    1:   36

InitMesh: MESH =    72 x    72 x    72 =      373248
InitMesh: (bp) =    36 x    36 x    36 =       46656
InitMesh: Mesh cutoff (required, used) =   200.000   227.396 Ry
ExtMesh (bp) on 0 =    84 x    84 x    84 =      592704
PhiOnMesh: Number of (b)points on node 0 =                46656
PhiOnMesh: nlist on node 0 =               408919

        iscf     Eharris(eV)        E_KS(eV)     FreeEng(eV)     dDmax    Ef(eV) dHmax(eV)
   scf:    1    -1572.542278    -1572.578094    -1572.578094  0.150402 -1.826628  3.395434
   scf:    2    -1568.227923    -1571.453877    -1571.453877  0.125776 -4.061270  6.735969
   scf:    3    -1573.435562    -1572.880493    -1572.880493  0.081015 -2.577395  0.470166
   scf:    4    -1572.891059    -1572.886170    -1572.886170  0.002759 -2.556815  0.429187
   scf:    5    -1572.901822    -1572.897171    -1572.897171  0.010014 -2.666394  0.075474
   scf:    6    -1572.898268    -1572.897858    -1572.897858  0.002571 -2.709730  0.066071
   scf:    7    -1572.897776    -1572.897968    -1572.897968  0.002001 -2.680441  0.077319
   scf:    8    -1572.898269    -1572.898175    -1572.898175  0.001227 -2.700949  0.015756
   scf:    9    -1572.898172    -1572.898175    -1572.898175  0.000197 -2.702617  0.011629
   scf:   10    -1572.898195    -1572.898186    -1572.898186  0.000522 -2.705633  0.002208
   scf:   11    -1572.898187    -1572.898186    -1572.898186  0.000005 -2.705662  0.002126
   scf:   12    -1572.898187    -1572.898187    -1572.898187  0.000089 -2.705758  0.001104
   scf:   13    -1572.898187    -1572.898187    -1572.898187  0.000056 -2.705978  0.000446

SCF Convergence by DM+H criterion
max |DM_out - DM_in|         :     0.0000564723
max |H_out - H_in|      (eV) :     0.0004461380
SCF cycle converged after 13 iterations

Using DM_out to compute the final energy and forces
No. of atoms with KB's overlaping orbs in proc 0. Max # of overlaps:      10      81

siesta: E_KS(eV) =            -1572.8982

siesta: Atomic forces (eV/Ang):
----------------------------------------
   Tot    0.092724   -0.119567    0.000001
----------------------------------------
   Max    9.596840
   Res    2.738209    sqrt( Sum f_i^2 / 3N )
----------------------------------------
   Max    9.596840    constrained

Stress tensor Voigt[x,y,z,yz,xz,xy] (kbar):       27.99      -30.23       -2.22       -0.00        0.00      -12.09
(Free)E + p*V (eV/cell)    -1572.4335
Target enthalpy (eV/cell)    -1572.8982

siesta: Stress tensor (static) (eV/Ang**3):
         0.020658   -0.009890    0.000000
        -0.009890   -0.004149   -0.000000
         0.000000   -0.000000   -0.001127

siesta: Pressure (static):         -8.21489902  kBar

siesta: Stress tensor (total) (eV/Ang**3):
         0.017469   -0.007549    0.000000
        -0.007549   -0.018868   -0.000000
         0.000000   -0.000000   -0.001388

siesta: Pressure (total):          1.48872351  kBar

siesta: Temp_ion =    3728.003 K

                     ====================================
                        Begin MD step =     10
                     ====================================

outcell: Unit cell vectors (Ang):
        7.937655    0.000000    0.000000
        0.000000    7.937655    0.000000
        0.000000    0.000000    7.937655

outcell: Cell vector modules (Ang)   :    7.937655    7.937655    7.937655
outcell: Cell angles (23,13,12) (deg):     90.0000     90.0000     90.0000
outcell: Cell volume (Ang**3)        :    500.1228
Gamma-point calculation with multiply-connected orbital pairs
Gamma-point calculation with multiply-connected orbital pairs
Folding of H and S implicitly performed
Folding of H and S implicitly performed
<dSpData1D:S at geom step 10
  <sparsity:sparsity for geom step 10
    nrows_g=85 nrows=85 sparsity=.9945 nnzs=7185, refcount: 7>
  <dData1D:(new from dSpData1D) n=7185, refcount: 1>
refcount: 1>
new_DM -- step:    10
Re-using DM from previous geometries...
Number of DMs in history: 1
 DM extrapolation coefficients: 
1   1.00000
New DM after history re-use:
<dSpData2D:SpM extrapolated using coords
  <sparsity:sparsity for geom step 10
    nrows_g=85 nrows=85 sparsity=.9945 nnzs=7185, refcount: 9>
  <dData2D:(temp array for extrapolation) n=7185 m=1, refcount: 1>
refcount: 1>
Note: For starting DM, Qtot, Tr[D*S] =         30.00000000         29.92147897
No. of atoms with KB's overlaping orbs in proc 0. Max # of overlaps:      10      81
New grid distribution:   1
           1       1:   36    1:   36    1:   36

InitMesh: MESH =    72 x    72 x    72 =      373248
InitMesh: (bp) =    36 x    36 x    36 =       46656
InitMesh: Mesh cutoff (required, used) =   200.000   227.396 Ry
ExtMesh (bp) on 0 =    84 x    84 x    84 =      592704
PhiOnMesh: Number of (b)points on node 0 =                46656
PhiOnMesh: nlist on node 0 =               408998

        iscf     Eharris(eV)        E_KS(eV)     FreeEng(eV)     dDmax    Ef(eV) dHmax(eV)
   scf:    1    -1571.742633    -1571.860587    -1571.860587  0.111222 -1.787426  2.480807
   scf:    2    -1569.133092    -1571.163076    -1571.163076  0.098713 -3.569083  4.777292
   scf:    3    -1572.417724    -1572.063498    -1572.063498  0.062805 -2.417731  0.343645
   scf:    4    -1572.078742    -1572.072468    -1572.072468  0.007843 -2.392874  0.268440
   scf:    5    -1572.082540    -1572.079024    -1572.079024  0.010293 -2.501465  0.059404
   scf:    6    -1572.079903    -1572.079548    -1572.079548  0.002155 -2.523783  0.062146
   scf:    7    -1572.079573    -1572.079666    -1572.079666  0.002012 -2.495273  0.062123
   scf:    8    -1572.079822    -1572.079768    -1572.079768  0.000877 -2.512507  0.011628
   scf:    9    -1572.079763    -1572.079766    -1572.079766  0.000092 -2.512742  0.010542
   scf:   10    -1572.079787    -1572.079778    -1572.079778  0.000591 -2.517428  0.001920
   scf:   11    -1572.079778    -1572.079778    -1572.079778  0.000004 -2.517397  0.001746
   scf:   12    -1572.079778    -1572.079778    -1572.079778  0.000059 -2.517483  0.000497

SCF Convergence by DM+H criterion
max |DM_out - DM_in|         :     0.0000589026
max |H_out - H_in|      (eV) :     0.0004973862
SCF cycle converged after 12 iterations

Using DM_out to compute the final energy and forces
No. of atoms with KB's overlaping orbs in proc 0. Max # of overlaps:      10      81

siesta: E_KS(eV) =            -1572.0798

siesta: Atomic forces (eV/Ang):
----------------------------------------
   Tot    0.223596   -0.150179   -0.000009
----------------------------------------
   Max   12.163262
   Res    3.563450    sqrt( Sum f_i^2 / 3N )
----------------------------------------
   Max   12.163262    constrained

Stress tensor Voigt[x,y,z,yz,xz,xy] (kbar):       27.58      -27.53       -0.22        0.00       -0.00      -15.95
(Free)E + p*V (eV/cell)    -1572.0623
Target enthalpy (eV/cell)    -1572.0798

siesta: Stress tensor (static) (eV/Ang**3):
         0.020934   -0.011550   -0.000000
        -0.011551   -0.004170    0.000000
        -0.000000    0.000000    0.000348

siesta: Pressure (static):         -9.13930002  kBar

siesta: Stress tensor (total) (eV/Ang**3):
         0.017212   -0.009955   -0.000000
        -0.009956   -0.017181    0.000000
        -0.000000    0.000000   -0.000136

siesta: Pressure (total):          0.05608699  kBar

siesta: Temp_ion =    3069.162 K

                     ====================================
                        Begin MD step =     11
                     ====================================

outcell: Unit cell vectors (Ang):
        7.937655    0.000000    0.000000
        0.000000    7.937655    0.000000
        0.000000    0.000000    7.937655

outcell: Cell vector modules (Ang)   :    7.937655    7.937655    7.937655
outcell: Cell angles (23,13,12) (deg):     90.0000     90.0000     90.0000
outcell: Cell volume (Ang**3)        :    500.1228
Gamma-point calculation with multiply-connected orbital pairs
[...]
        -0.007991    0.012808   -0.000002
        -0.000000   -0.000002   -0.006650

siesta: Pressure (static):        -12.59284333  kBar

siesta: Stress tensor (total) (eV/Ang**3):
         0.011343   -0.005427   -0.000000
        -0.005427    0.009148   -0.000002
        -0.000000   -0.000002   -0.007755

siesta: Pressure (total):         -6.80216666  kBar

siesta: Temp_ion =    2635.564 K

                     ====================================
                        Begin MD step =     98
                     ====================================

outcell: Unit cell vectors (Ang):
        7.937655    0.000000    0.000000
        0.000000    7.937655    0.000000
        0.000000    0.000000    7.937655

outcell: Cell vector modules (Ang)   :    7.937655    7.937655    7.937655
outcell: Cell angles (23,13,12) (deg):     90.0000     90.0000     90.0000
outcell: Cell volume (Ang**3)        :    500.1228
Gamma-point calculation with multiply-connected orbital pairs
Gamma-point calculation with multiply-connected orbital pairs
Folding of H and S implicitly performed
Folding of H and S implicitly performed
<dSpData1D:S at geom step 98
  <sparsity:sparsity for geom step 98
    nrows_g=85 nrows=85 sparsity=.9900 nnzs=7153, refcount: 7>
  <dData1D:(new from dSpData1D) n=7153, refcount: 1>
refcount: 1>
new_DM -- step:    98
Re-using DM from previous geometries...
Number of DMs in history: 1
 DM extrapolation coefficients: 
1   1.00000
New DM after history re-use:
<dSpData2D:SpM extrapolated using coords
  <sparsity:sparsity for geom step 98
    nrows_g=85 nrows=85 sparsity=.9900 nnzs=7153, refcount: 9>
  <dData2D:(temp array for extrapolation) n=7153 m=1, refcount: 1>
refcount: 1>
Note: For starting DM, Qtot, Tr[D*S] =         30.00000000         30.03217279
No. of atoms with KB's overlaping orbs in proc 0. Max # of overlaps:      10      81
New grid distribution:   1
           1       1:   36    1:   36    1:   36

InitMesh: MESH =    72 x    72 x    72 =      373248
InitMesh: (bp) =    36 x    36 x    36 =       46656
InitMesh: Mesh cutoff (required, used) =   200.000   227.396 Ry
ExtMesh (bp) on 0 =    84 x    84 x    84 =      592704
PhiOnMesh: Number of (b)points on node 0 =                46656
PhiOnMesh: nlist on node 0 =               408964

        iscf     Eharris(eV)        E_KS(eV)     FreeEng(eV)     dDmax    Ef(eV) dHmax(eV)
   scf:    1    -1571.709707    -1571.508986    -1571.508986  0.108950 -3.257595  2.253206
   scf:    2    -1563.696287    -1569.243911    -1569.243911  0.258913 -3.666807  7.900277
   scf:    3    -1572.499646    -1571.721007    -1571.721007  0.174182 -2.875077  0.849003
   scf:    4    -1571.737922    -1571.731232    -1571.731232  0.009509 -2.918281  0.527417
   scf:    5    -1571.745903    -1571.742360    -1571.742360  0.007688 -2.833848  0.099567
   scf:    6    -1571.739928    -1571.741733    -1571.741733  0.005511 -2.810959  0.185530
   scf:    7    -1571.742915    -1571.743157    -1571.743157  0.005903 -2.819786  0.080164
   scf:    8    -1571.742283    -1571.742868    -1571.742868  0.001484 -2.831263  0.135521
   scf:    9    -1571.742935    -1571.743267    -1571.743267  0.004300 -2.810230  0.064388
   scf:   10    -1571.743389    -1571.743406    -1571.743406  0.001820 -2.814233  0.013180
   scf:   11    -1571.743413    -1571.743412    -1571.743412  0.000344 -2.813083  0.003216
   scf:   12    -1571.743412    -1571.743412    -1571.743412  0.000031 -2.813203  0.002747
   scf:   13    -1571.743412    -1571.743412    -1571.743412  0.000017 -2.813309  0.002649
   scf:   14    -1571.743414    -1571.743413    -1571.743413  0.000156 -2.812579  0.000868

SCF Convergence by DM+H criterion
max |DM_out - DM_in|         :     0.0001563272
max |H_out - H_in|      (eV) :     0.0008682178
SCF cycle converged after 14 iterations

Using DM_out to compute the final energy and forces
No. of atoms with KB's overlaping orbs in proc 0. Max # of overlaps:      10      81

siesta: E_KS(eV) =            -1571.7434

siesta: Atomic forces (eV/Ang):
----------------------------------------
   Tot   -0.107884   -0.058852   -0.000600
----------------------------------------
   Max    7.037178
   Res    3.055888    sqrt( Sum f_i^2 / 3N )
----------------------------------------
   Max    7.037178    constrained

Stress tensor Voigt[x,y,z,yz,xz,xy] (kbar):        6.59       22.09       -8.41       -0.00       -0.00      -12.05
(Free)E + p*V (eV/cell)    -1573.8529
Target enthalpy (eV/cell)    -1571.7434

siesta: Stress tensor (static) (eV/Ang**3):
         0.009506   -0.009255   -0.000001
        -0.009254    0.017462   -0.000000
        -0.000001   -0.000000   -0.002142

siesta: Pressure (static):        -13.25871320  kBar

siesta: Stress tensor (total) (eV/Ang**3):
         0.004115   -0.007521   -0.000001
        -0.007520    0.013790   -0.000000
        -0.000001   -0.000000   -0.005251

siesta: Pressure (total):         -6.75790477  kBar

siesta: Temp_ion =    2751.056 K

                     ====================================
                        Begin MD step =     99
                     ====================================

outcell: Unit cell vectors (Ang):
        7.937655    0.000000    0.000000
        0.000000    7.937655    0.000000
        0.000000    0.000000    7.937655

outcell: Cell vector modules (Ang)   :    7.937655    7.937655    7.937655
outcell: Cell angles (23,13,12) (deg):     90.0000     90.0000     90.0000
outcell: Cell volume (Ang**3)        :    500.1228
Gamma-point calculation with multiply-connected orbital pairs
Gamma-point calculation with multiply-connected orbital pairs
Folding of H and S implicitly performed
Folding of H and S implicitly performed
<dSpData1D:S at geom step 99
  <sparsity:sparsity for geom step 99
    nrows_g=85 nrows=85 sparsity=.9900 nnzs=7153, refcount: 7>
  <dData1D:(new from dSpData1D) n=7153, refcount: 1>
refcount: 1>
new_DM -- step:    99
Re-using DM from previous geometries...
Number of DMs in history: 1
 DM extrapolation coefficients: 
1   1.00000
New DM after history re-use:
<dSpData2D:SpM extrapolated using coords
  <sparsity:sparsity for geom step 99
    nrows_g=85 nrows=85 sparsity=.9900 nnzs=7153, refcount: 9>
  <dData2D:(temp array for extrapolation) n=7153 m=1, refcount: 1>
refcount: 1>
No. of atoms with KB's overlaping orbs in proc 0. Max # of overlaps:      10      81
New grid distribution:   1
           1       1:   36    1:   36    1:   36

InitMesh: MESH =    72 x    72 x    72 =      373248
InitMesh: (bp) =    36 x    36 x    36 =       46656
InitMesh: Mesh cutoff (required, used) =   200.000   227.396 Ry
ExtMesh (bp) on 0 =    84 x    84 x    84 =      592704
PhiOnMesh: Number of (b)points on node 0 =                46656
PhiOnMesh: nlist on node 0 =               408817

        iscf     Eharris(eV)        E_KS(eV)     FreeEng(eV)     dDmax    Ef(eV) dHmax(eV)
   scf:    1    -1571.902893    -1571.552120    -1571.552120  0.074073 -3.166455  1.398307
   scf:    2    -1568.405117    -1570.645765    -1570.645765  0.180044 -2.232146  5.393635
   scf:    3    -1571.951437    -1571.644643    -1571.644643  0.126234 -2.939852  0.506866
   scf:    4    -1571.649604    -1571.648319    -1571.648319  0.008057 -2.972682  0.229462
   scf:    5    -1571.653102    -1571.653067    -1571.653067  0.007114 -2.884223  0.262007
   scf:    6    -1571.655910    -1571.654686    -1571.654686  0.002699 -2.888882  0.166405
   scf:    7    -1571.651430    -1571.654604    -1571.654604  0.009195 -2.916944  0.193877
   scf:    8    -1571.655510    -1571.655700    -1571.655700  0.006091 -2.901340  0.043474
   scf:    9    -1571.655618    -1571.655661    -1571.655661  0.000352 -2.900176  0.056230
   scf:   10    -1571.655804    -1571.655757    -1571.655757  0.001066 -2.902488  0.010062
   scf:   11    -1571.655761    -1571.655760    -1571.655760  0.000239 -2.903178  0.001634
   scf:   12    -1571.655760    -1571.655760    -1571.655760  0.000012 -2.903132  0.001531
   scf:   13    -1571.655761    -1571.655760    -1571.655760  0.000054 -2.903119  0.000936

SCF Convergence by DM+H criterion
max |DM_out - DM_in|         :     0.0000539733
max |H_out - H_in|      (eV) :     0.0009364883
SCF cycle converged after 13 iterations

Using DM_out to compute the final energy and forces
No. of atoms with KB's overlaping orbs in proc 0. Max # of overlaps:      10      81

siesta: E_KS(eV) =            -1571.6558

siesta: Atomic forces (eV/Ang):
----------------------------------------
   Tot    0.040718   -0.153250   -0.000085
----------------------------------------
   Max    8.382559
   Res    3.393380    sqrt( Sum f_i^2 / 3N )
----------------------------------------
   Max    8.382559    constrained

Stress tensor Voigt[x,y,z,yz,xz,xy] (kbar):       -0.95       24.33       -2.89       -0.00        0.00      -15.08
(Free)E + p*V (eV/cell)    -1573.7877
Target enthalpy (eV/cell)    -1571.6558

siesta: Stress tensor (static) (eV/Ang**3):
         0.003817   -0.010055    0.000000
        -0.010055    0.019209   -0.000000
         0.000000   -0.000000    0.002468

siesta: Pressure (static):        -13.61561067  kBar

siesta: Stress tensor (total) (eV/Ang**3):
        -0.000594   -0.009414    0.000001
        -0.009414    0.015186   -0.000001
         0.000001   -0.000001   -0.001803

siesta: Pressure (total):         -6.82993487  kBar

siesta: Temp_ion =    2699.852 K

                     ====================================
                        Begin MD step =    100
                     ====================================

outcell: Unit cell vectors (Ang):
        7.937655    0.000000    0.000000
        0.000000    7.937655    0.000000
        0.000000    0.000000    7.937655

outcell: Cell vector modules (Ang)   :    7.937655    7.937655    7.937655
outcell: Cell angles (23,13,12) (deg):     90.0000     90.0000     90.0000
outcell: Cell volume (Ang**3)        :    500.1228
Gamma-point calculation with multiply-connected orbital pairs
Gamma-point calculation with multiply-connected orbital pairs
Folding of H and S implicitly performed
Folding of H and S implicitly performed
<dSpData1D:S at geom step 100
  <sparsity:sparsity for geom step 100
    nrows_g=85 nrows=85 sparsity=.9900 nnzs=7153, refcount: 7>
  <dData1D:(new from dSpData1D) n=7153, refcount: 1>
refcount: 1>
new_DM -- step:   100
Re-using DM from previous geometries...
Number of DMs in history: 1
 DM extrapolation coefficients: 
1   1.00000
New DM after history re-use:
<dSpData2D:SpM extrapolated using coords
  <sparsity:sparsity for geom step 100
    nrows_g=85 nrows=85 sparsity=.9900 nnzs=7153, refcount: 9>
  <dData2D:(temp array for extrapolation) n=7153 m=1, refcount: 1>
refcount: 1>
No. of atoms with KB's overlaping orbs in proc 0. Max # of overlaps:      10      81
New grid distribution:   1
           1       1:   36    1:   36    1:   36

InitMesh: MESH =    72 x    72 x    72 =      373248
InitMesh: (bp) =    36 x    36 x    36 =       46656
InitMesh: Mesh cutoff (required, used) =   200.000   227.396 Ry
ExtMesh (bp) on 0 =    84 x    84 x    84 =      592704
PhiOnMesh: Number of (b)points on node 0 =                46656
PhiOnMesh: nlist on node 0 =               409011

        iscf     Eharris(eV)        E_KS(eV)     FreeEng(eV)     dDmax    Ef(eV) dHmax(eV)
   scf:    1    -1572.171864    -1571.701870    -1571.701870  0.055101 -3.103765  0.488245
   scf:    2    -1571.416248    -1571.627633    -1571.627633  0.040200 -2.992377  1.272734
   scf:    3    -1571.749754    -1571.721585    -1571.721585  0.027515 -3.069216  0.176784
   scf:    4    -1571.723372    -1571.722651    -1571.722651  0.002897 -3.070419  0.130193
   scf:    5    -1571.725546    -1571.724563    -1571.724563  0.003551 -3.059692  0.063732
   scf:    6    -1571.723625    -1571.724498    -1571.724498  0.004438 -3.048021  0.111132
   scf:    7    -1571.724629    -1571.724566    -1571.724566  0.000300 -3.048939  0.100931
   scf:    8    -1571.724861    -1571.724863    -1571.724863  0.002971 -3.056618  0.014181
   scf:    9    -1571.724856    -1571.724870    -1571.724870  0.000733 -3.054916  0.015671
   scf:   10    -1571.724878    -1571.724877    -1571.724877  0.000401 -3.055946  0.002599
   scf:   11    -1571.724878    -1571.724878    -1571.724878  0.000078 -3.055622  0.001213
   scf:   12    -1571.724878    -1571.724878    -1571.724878  0.000023 -3.055674  0.000509

SCF Convergence by DM+H criterion
max |DM_out - DM_in|         :     0.0000225793
max |H_out - H_in|      (eV) :     0.0005091825
SCF cycle converged after 12 iterations

Using DM_out to compute the final energy and forces
No. of atoms with KB's overlaping orbs in proc 0. Max # of overlaps:      10      81

siesta: E_KS(eV) =            -1571.7249

siesta: Atomic forces (eV/Ang):
----------------------------------------
   Tot    0.141375   -0.151781   -0.000158
----------------------------------------
   Max    7.747430
   Res    3.212918    sqrt( Sum f_i^2 / 3N )
----------------------------------------
   Max    7.747430    constrained

Stress tensor Voigt[x,y,z,yz,xz,xy] (kbar):        1.29       21.55        3.94        0.00        0.00      -17.41
(Free)E + p*V (eV/cell)    -1574.5116
Target enthalpy (eV/cell)    -1571.7249

siesta: Stress tensor (static) (eV/Ang**3):
         0.004287   -0.010624    0.000001
        -0.010623    0.018462    0.000001
         0.000001    0.000001    0.006437

siesta: Pressure (static):        -15.58681584  kBar

siesta: Stress tensor (total) (eV/Ang**3):
         0.000808   -0.010869    0.000001
        -0.010869    0.013451    0.000001
         0.000001    0.000001    0.002457

siesta: Pressure (total):         -8.92743838  kBar

siesta: Temp_ion =    2759.325 K

coxmol: Writing XMOL coordinates into file NH2-CH2-CN.xyz                                                      

siesta: Program's energy decomposition (eV):
siesta: Ebs     =      -383.656029
siesta: Eions   =      2230.571126
siesta: Ena     =       310.810199
siesta: Ekin    =      1062.067729
siesta: Enl     =      -261.569967
siesta: Eso     =         0.000000
siesta: Edftu   =         0.000000
siesta: DEna    =        -0.216446
siesta: DUscf   =         2.384614
siesta: DUext   =         0.000000
siesta: Exc     =      -454.629879
siesta: eta*DQ  =         0.000000
siesta: Emadel  =         0.000000
siesta: Emeta   =         0.000000
siesta: Emolmec =         0.000000
siesta: Ekinion =         3.209909
siesta: Eharris =     -1568.514969
siesta: Etot    =     -1568.514969
siesta: FreeEng =     -1568.514969

siesta: Final energy (eV):
siesta:  Band Struct. =    -383.656029
siesta:       Kinetic =    1062.067729
siesta:       Hartree =    1698.542826
siesta:       Edftu   =       0.000000
siesta:       Eso     =       0.000000
siesta:    Ext. field =       0.000000
siesta:   Exch.-corr. =    -454.629879
siesta:  Ion-electron =   -4319.861703
siesta:       Ion-ion =     442.156149
siesta:       Ekinion =       3.209909
siesta:         Total =   -1568.514969
siesta:         Fermi =      -3.055674

siesta: Atomic forces (eV/Ang):
siesta:      1   -6.291787   -0.784110   -0.000779
siesta:      2    0.145103   -0.158297    0.669798
siesta:      3    0.145624   -0.157755   -0.668898
siesta:      4    2.141285    5.794294   -0.000472
siesta:      5    1.341958   -1.742467    2.371586
siesta:      6    1.341804   -1.742832   -2.371243
siesta:      7   -7.580082    4.467602   -0.000184
siesta:      8    4.620725   -5.436741   -0.000063
siesta:      9    7.747430   -2.310341    0.000262
siesta:     10   -3.470685    1.918867   -0.000164
siesta: ----------------------------------------
siesta:    Tot    0.141375   -0.151781   -0.000158

siesta: Stress tensor (static) (eV/Ang**3):
siesta:     0.004287   -0.010624    0.000001
siesta:    -0.010623    0.018462    0.000001
siesta:     0.000001    0.000001    0.006437

siesta: Cell volume =        500.122803 Ang**3

siesta: Pressure (static):
siesta:                Solid            Molecule  Units
siesta:          -0.00010595         -0.00001100  Ry/Bohr**3
siesta:          -0.00972842         -0.00100972  eV/Ang**3
siesta:         -15.58681584         -1.61777312  kBar
(Free)E+ p_basis*V_orbitals  =       -1569.836081
(Free)Eharris+ p_basis*V_orbitals  =       -1569.836081

siesta: Electric dipole (a.u.)  =    0.000000   -0.005704   -0.000045
siesta: Electric dipole (Debye) =    0.000000   -0.014498   -0.000115

cite: Please see "NH2-CH2-CN.bib" for an exhaustive BiBTeX file.
cite: Please clearly indicate Siesta version in published work: 4.1.5
cite: This calculation has made use of the following articles
cite: which are encouraged to be cited in a published work.
        Primary SIESTA paper
          DOI: www.doi.org/10.1088/0953-8984/14/11/302


timer: Elapsed wall time (sec) =     674.335
timer: CPU execution times (sec):

Routine            Calls   Time/call    Tot.time        %
siesta                 1    2360.784    2360.784   100.00
Setup                  1       0.415       0.415     0.02
bands                  1       0.000       0.000     0.00
KSV_init               1       0.000       0.000     0.00
IterGeom             100      23.604    2360.365    99.98
state_init           100       0.030       3.029     0.13
hsparse              100       0.001       0.073     0.00
overlap              100       0.029       2.899     0.12
Setup_H0             100       0.730      72.988     3.09
naefs                200       0.000       0.012     0.00
MolMec               200       0.000       0.000     0.00
kinefsm              200       0.016       3.183     0.13
nlefsm               200       0.098      19.687     0.83
DHSCF_Init           100       0.515      51.455     2.18
DHSCF1               100       0.012       1.233     0.05
INITMESH             100       0.000       0.001     0.00
DHSCF2               100       0.502      50.221     2.13
REMESH               100       0.057       5.733     0.24
REORD               4498       0.004      17.238     0.73
PHION                100       0.305      30.505     1.29
COMM_BSC            6296       0.003      19.469     0.82
POISON              1599       0.523     835.794    35.40
fft                 3198       0.237     759.479    32.17
IterSCF             1299       1.705    2215.136    93.83
setup_H             1399       1.541    2156.517    91.35
DHSCF               1499       1.483    2223.100    94.17
DHSCF3              1499       1.460    2189.054    92.73
rhoofd              1499       0.671    1005.824    42.61
XC                  1499       0.152     228.498     9.68
GXC-CellXC          1499       0.149     223.829     9.48
cellXC              1499       0.149     223.775     9.48
vmat                1499       0.029      43.448     1.84
compute_dm          1299       0.044      57.753     2.45
diagon              1299       0.044      57.294     2.43
r-eigvec            1299       0.034      43.682     1.85
r-buildHS           1299       0.000       0.054     0.00
rdiag               1299       0.034      43.604     1.85
rdiag1              1299       0.005       6.642     0.28
rdiag2              1299       0.004       5.108     0.22
rdiag3              1299       0.023      30.039     1.27
rdiag4              1299       0.001       1.682     0.07
r-buildD            1299       0.010      13.219     0.56
MIXER               1199       0.000       0.224     0.01
PostSCF              100       0.691      69.098     2.93
DHSCF4               100       0.340      34.029     1.44
dfscf                100       0.294      29.430     1.25
overfsm              100       0.002       0.228     0.01
state_analysis       100       0.000       0.026     0.00
siesta_move          100       0.001       0.056     0.00
Analysis               1       0.000       0.000     0.00
siesta_analysis        1       0.000       0.000     0.00
optical                1       0.000       0.000     0.00
  
>> End of run:  17-JUN-2023  22:46:12
Job completed
Job completed
