Siesta Version  : 4.1.5
Architecture    : unknown
Compiler version: GNU Fortran (GCC) 9.4.0
Compiler flags  : mpifort -march=nocona -mtune=haswell -ftree-vectorize -fPIC -fstack-protectorr-strong -fno-plt -O2 -ffunction-sections -pipe
PP flags        : -DFC_HAVE_ABORT -DCDF -DMPI -DSIESTA__MRRR -DNCDF -DNCDF_4
Libraries       : libncdf.a libfdict.a -lscalapack -llapack -lblas -lnetcdff -lnetcdf -lhdf5_hll -lhdf5 -lz
PARALLEL version
NetCDF support
NetCDF-4 support

* Running in serial mode with MPI
>> Start of run:  16-JUN-2023  10:44:18

                           ***********************       
                           *  WELCOME TO SIESTA  *       
                           ***********************       

reinit: Reading from standard input
reinit: Dumped input in INPUT_TMP.23140
************************** Dump of input data file ****************************
SystemName             ch4-o            # Descriptive name of the system
SystemLabel            ch4-o            # Short name for naming files
# Species and atoms
NumberOfSpecies       3
NumberOfAtoms         6
%block ChemicalSpeciesLabel
  1   8   O
  2   6   C
  3   1   H
%endblock ChemicalSpeciesLabel
# Basis
%block PAO.BasisSizes
    C DZP
    O DZP
    H SZP
%endblock PAO.BasisSizes
LatticeConstant       1.0000 Ang
%block LatticeVectors
15.00000   0.000000  0.000000
 0.00000  15.000000  0.000000
 0.00000   0.000000 15.000000
%endblock LatticeVectors
%block kgrid_Monkhorst_Pack
   1  0  0  0.
   0  1  0  0.
   0  0  1  0.
%endblock Kgrid_Monkhorst_Pack
xc.functional         GGA           # Exchange-correlation functional
xc.authors            PBE           # Exchange-correlation version
#SpinPolarized         true          # Logical parameters are: yes or no
MeshCutoff           200. Ry        # Mesh cutoff. real space mesh
# SCF options
#SCFMustConvergence     true
MaxSCFIterations       150          # Maximum number of SCF iter
DM.MixingWeight       0.02          # New DM amount for next SCF cycle
DM.Tolerance          3.d-4         # Tolerance in maximum difference
                                    # between input and output DM
DM.NumberPulay          6           # to use continuation files
#DM.NumberBroyden       3
#DM.AllowExtrapolation  false
MD.UseSaveData           true
Diag.DivideAndConquer 	true
SolutionMethod        diagon        # OrderN or Diagon
ElectronicTemperature  25 meV       # Temp. for Fermi smearing
# -----------------------------
#  MD options
#  options for a basic MD run
# -----------------------------
# Options to Integrate Equations of motion
MD.TypeOfRun         verlet         # Standard Verlet algrithm
                                    # for Molecular Dynamics
MD.LengthTimeStep         1.0 fs    # time step integration
                                    # Newton eqs of motion
MD.Initial.Time.Step     1          #initial time step of MD
MD.FinalTimeStep         100        #Final time step of MD
# Initial Atomic coordinates and Velocity for MD run
MD.InitialTemperature     0 K       #Assign initial random velocity from
                                    # a Maxwell-Boltzmann distribution
                                    # for a given temperature
MD.UseSaveXV 		true            # use atomic Positions
                                    # and Velocities from
                                    # a saved XV file
AtomicCoordinatesFormat Ang         #Use Angstroms for atomic coordinates
%block AtomicCoordinatesAndAtomicSpecies
        0.000000  0.000000  0.000000 2 ! C 1
        0.627600  0.627600  0.627600 3 ! H 2
        0.627600 -0.627600 -0.627600 3 ! H 3
       -0.627600  0.627600 -0.627600 3 ! H 4
       -0.627600 -0.627600  0.627600 3 ! H 5
        5.000000  0.000000  0.000000 1 ! O 6
%endblock AtomicCoordinatesAndAtomicSpecies
#MD Output
WriteCoorXmol          true         #Save the final coordinates in .xyz format
WriteMDXmol            true         #Writes the coordinates
                                    #of all atoms at all steps
                                    #in a .ANI file
                                    #in xyz format
WriteMDhistory         true         #writes .MDE and .MD files
                                    # with output data from MD simulation
                                    # MDE contains: Temp, energy, volume, pressure
                                    # (human readable)
                                    # MD contains coords vel lattice vectors
                                    # (unformatted; post-process with iomd.f)
************************** End of input data file *****************************

reinit: -----------------------------------------------------------------------
reinit: System Name: ch4-o
reinit: -----------------------------------------------------------------------
reinit: System Label: ch4-o
reinit: -----------------------------------------------------------------------

initatom: Reading input for the pseudopotentials and atomic orbitals ----------
Species number:   1 Atomic number:    8 Label: O
Species number:   2 Atomic number:    6 Label: C
Species number:   3 Atomic number:    1 Label: H

Ground state valence configuration:   2s02  2p04
Reading pseudopotential information in formatted form from O.psf

Valence configuration for pseudopotential generation:
2s( 2.00) rc: 1.47
2p( 4.00) rc: 1.47
3d( 0.00) rc: 1.47
4f( 0.00) rc: 1.47
Ground state valence configuration:   2s02  2p02
Reading pseudopotential information in formatted form from C.psf

Valence configuration for pseudopotential generation:
2s( 2.00) rc: 1.54
2p( 2.00) rc: 1.54
3d( 0.00) rc: 1.54
4f( 0.00) rc: 1.54
Ground state valence configuration:   1s01
Reading pseudopotential information in formatted form from H.psf

Valence configuration for pseudopotential generation:
1s( 1.00) rc: 1.31
2p( 0.00) rc: 1.31
3d( 0.00) rc: 0.37
4f( 0.00) rc: 1.31
resizes: Read basis size for species C = dzp                 
resizes: Read basis size for species O = dzp                 
resizes: Read basis size for species H = szp                 
For O, standard SIESTA heuristics set lmxkb to 3
 (one more than the basis l, including polarization orbitals).
Use PS.lmax or PS.KBprojectors blocks to override.
For C, standard SIESTA heuristics set lmxkb to 3
 (one more than the basis l, including polarization orbitals).
Use PS.lmax or PS.KBprojectors blocks to override.
For H, standard SIESTA heuristics set lmxkb to 2
 (one more than the basis l, including polarization orbitals).
Use PS.lmax or PS.KBprojectors blocks to override.

<basis_specs>
===============================================================================
O                    Z=   8    Mass=  16.000        Charge= 0.17977+309
Lmxo=1 Lmxkb= 3    BasisType=split      Semic=F
L=0  Nsemic=0  Cnfigmx=2
          i=1  nzeta=2  polorb=0  (2s)
            splnorm:   0.15000    
               vcte:    0.0000    
               rinn:    0.0000    
               qcoe:    0.0000    
               qyuk:    0.0000    
               qwid:   0.10000E-01
                rcs:    0.0000      0.0000    
            lambdas:    1.0000      1.0000    
L=1  Nsemic=0  Cnfigmx=2
          i=1  nzeta=2  polorb=1  (2p)
            splnorm:   0.15000    
               vcte:    0.0000    
               rinn:    0.0000    
               qcoe:    0.0000    
               qyuk:    0.0000    
               qwid:   0.10000E-01
                rcs:    0.0000      0.0000    
            lambdas:    1.0000      1.0000    
-------------------------------------------------------------------------------
L=0  Nkbl=1  erefs: 0.17977+309
L=1  Nkbl=1  erefs: 0.17977+309
L=2  Nkbl=1  erefs: 0.17977+309
L=3  Nkbl=1  erefs: 0.17977+309
===============================================================================
</basis_specs>

atom: Called for O                     (Z =   8)

read_vps: Pseudopotential generation method:
read_vps: ATM3      Troullier-Martins                       
Valence charge for ps generation:    6.00000

read_vps: Pseudopotential includes a core correction:
read_vps: Pseudo-core for xc-correction

xc_check: Exchange-correlation functional:
xc_check: GGA Perdew, Burke & Ernzerhof 1996
V l=0 = -2*Zval/r beyond r=  1.4482
V l=1 = -2*Zval/r beyond r=  1.4482
V l=2 = -2*Zval/r beyond r=  1.4482
V l=3 = -2*Zval/r beyond r=  1.4482
All V_l potentials equal beyond r=  1.4482
This should be close to max(r_c) in ps generation
All pots = -2*Zval/r beyond r=  1.4482

VLOCAL1: 99.0% of the norm of Vloc inside     20.696 Ry
VLOCAL1: 99.9% of the norm of Vloc inside     47.167 Ry
atom: Maximum radius for 4*pi*r*r*local-pseudopot. charge    1.74697
atom: Maximum radius for r*vlocal+2*Zval:    1.52250
GHOST: No ghost state for L =  0
GHOST: No ghost state for L =  1
GHOST: No ghost state for L =  2
GHOST: No ghost state for L =  3

KBgen: Kleinman-Bylander projectors: 
   l= 0   rc=  1.620715   el= -1.757696   Ekb=  4.880948   kbcos=  0.293490
   l= 1   rc=  1.600578   el= -0.664256   Ekb= -6.909822   kbcos= -0.499892
   l= 2   rc=  1.703827   el=  0.002031   Ekb= -1.539219   kbcos= -0.006778
   l= 3   rc=  1.746967   el=  0.003153   Ekb= -0.568983   kbcos= -0.000967

KBgen: Total number of Kleinman-Bylander projectors:   16
atom: -------------------------------------------------------------------------

atom: SANKEY-TYPE ORBITALS:
atom: Selected multiple-zeta basis: split     

SPLIT: Orbitals with angular momentum L= 0

SPLIT: Basis orbitals for state 2s

SPLIT: PAO cut-off radius determined from an
SPLIT: energy shift=  0.020000 Ry

   izeta = 1
                 lambda =    1.000000
                     rc =    3.305093
                 energy =   -1.740009
                kinetic =    1.602198
    potential(screened) =   -3.342207
       potential(ionic) =  -11.287121

   izeta = 2
                 rmatch =    2.510382
              splitnorm =    0.150000
                 energy =   -1.483129
                kinetic =    2.419988
    potential(screened) =   -3.903117
       potential(ionic) =  -12.432204

SPLIT: Orbitals with angular momentum L= 1

SPLIT: Basis orbitals for state 2p

SPLIT: PAO cut-off radius determined from an
SPLIT: energy shift=  0.020000 Ry

   izeta = 1
                 lambda =    1.000000
                     rc =    3.937239
                 energy =   -0.646301
                kinetic =    4.684247
    potential(screened) =   -5.330548
       potential(ionic) =  -13.029785

   izeta = 2
                 rmatch =    2.541963
              splitnorm =    0.150000
                 energy =   -0.369342
                kinetic =    6.896892
    potential(screened) =   -7.266234
       potential(ionic) =  -15.802088

POLgen: Perturbative polarization orbital with L=  2

POLgen: Polarization orbital for state 2p

   izeta = 1
                     rc =    3.937239
                 energy =    2.419602
                kinetic =    4.834162
    potential(screened) =   -2.414561
       potential(ionic) =   -8.756379
atom: Total number of Sankey-type orbitals: 13

atm_pop: Valence configuration (for local Pseudopot. screening):
 2s( 2.00)                                                            
 2p( 4.00)                                                            
Vna: chval, zval:    6.00000   6.00000

Vna:  Cut-off radius for the neutral-atom potential:   3.937239
comcore: Pseudo-core radius Rcore=  1.377587

atom: _________________________________________________________________________

<basis_specs>
===============================================================================
C                    Z=   6    Mass=  12.010        Charge= 0.17977+309
Lmxo=1 Lmxkb= 3    BasisType=split      Semic=F
L=0  Nsemic=0  Cnfigmx=2
          i=1  nzeta=2  polorb=0  (2s)
            splnorm:   0.15000    
               vcte:    0.0000    
               rinn:    0.0000    
               qcoe:    0.0000    
               qyuk:    0.0000    
               qwid:   0.10000E-01
                rcs:    0.0000      0.0000    
            lambdas:    1.0000      1.0000    
L=1  Nsemic=0  Cnfigmx=2
          i=1  nzeta=2  polorb=1  (2p)
            splnorm:   0.15000    
               vcte:    0.0000    
               rinn:    0.0000    
               qcoe:    0.0000    
               qyuk:    0.0000    
               qwid:   0.10000E-01
                rcs:    0.0000      0.0000    
            lambdas:    1.0000      1.0000    
-------------------------------------------------------------------------------
L=0  Nkbl=1  erefs: 0.17977+309
L=1  Nkbl=1  erefs: 0.17977+309
L=2  Nkbl=1  erefs: 0.17977+309
L=3  Nkbl=1  erefs: 0.17977+309
===============================================================================
</basis_specs>

atom: Called for C                     (Z =   6)

read_vps: Pseudopotential generation method:
read_vps: ATM3      Troullier-Martins                       
Valence charge for ps generation:    4.00000

read_vps: Pseudopotential includes a core correction:
read_vps: Pseudo-core for xc-correction

xc_check: Exchange-correlation functional:
xc_check: GGA Perdew, Burke & Ernzerhof 1996
V l=0 = -2*Zval/r beyond r=  1.5227
V l=1 = -2*Zval/r beyond r=  1.5227
V l=2 = -2*Zval/r beyond r=  1.5227
V l=3 = -2*Zval/r beyond r=  1.5038
All V_l potentials equal beyond r=  1.5227
This should be close to max(r_c) in ps generation
All pots = -2*Zval/r beyond r=  1.5227

VLOCAL1: 99.0% of the norm of Vloc inside     18.722 Ry
VLOCAL1: 99.9% of the norm of Vloc inside     42.668 Ry
atom: Maximum radius for 4*pi*r*r*local-pseudopot. charge    1.83678
atom: Maximum radius for r*vlocal+2*Zval:    1.58088
GHOST: No ghost state for L =  0
GHOST: No ghost state for L =  1
GHOST: No ghost state for L =  2
GHOST: No ghost state for L =  3

KBgen: Kleinman-Bylander projectors: 
   l= 0   rc=  1.704034   el= -1.009801   Ekb=  5.335044   kbcos=  0.316824
   l= 1   rc=  1.704034   el= -0.388707   Ekb= -3.785862   kbcos= -0.366464
   l= 2   rc=  1.791422   el=  0.001971   Ekb= -0.970471   kbcos= -0.009212
   l= 3   rc=  1.859892   el=  0.003065   Ekb= -0.399525   kbcos= -0.001223

KBgen: Total number of Kleinman-Bylander projectors:   16
atom: -------------------------------------------------------------------------

atom: SANKEY-TYPE ORBITALS:
atom: Selected multiple-zeta basis: split     

SPLIT: Orbitals with angular momentum L= 0

SPLIT: Basis orbitals for state 2s

SPLIT: PAO cut-off radius determined from an
SPLIT: energy shift=  0.020000 Ry

   izeta = 1
                 lambda =    1.000000
                     rc =    4.088342
                 energy =   -0.989105
                kinetic =    0.904439
    potential(screened) =   -1.893544
       potential(ionic) =   -5.484581

   izeta = 2
                 rmatch =    3.347176
              splitnorm =    0.150000
                 energy =   -0.835603
                kinetic =    1.364067
    potential(screened) =   -2.199670
       potential(ionic) =   -6.017020

SPLIT: Orbitals with angular momentum L= 1

SPLIT: Basis orbitals for state 2p

SPLIT: PAO cut-off radius determined from an
SPLIT: energy shift=  0.020000 Ry

   izeta = 1
                 lambda =    1.000000
                     rc =    4.870301
                 energy =   -0.368906
                kinetic =    2.520369
    potential(screened) =   -2.889275
       potential(ionic) =   -6.370528

   izeta = 2
                 rmatch =    3.475094
              splitnorm =    0.150000
                 energy =   -0.205913
                kinetic =    3.767535
    potential(screened) =   -3.973448
       potential(ionic) =   -7.809680

POLgen: Perturbative polarization orbital with L=  2

POLgen: Polarization orbital for state 2p

   izeta = 1
                     rc =    4.870301
                 energy =    1.296434
                kinetic =    2.645086
    potential(screened) =   -1.348652
       potential(ionic) =   -4.303965
atom: Total number of Sankey-type orbitals: 13

atm_pop: Valence configuration (for local Pseudopot. screening):
 2s( 2.00)                                                            
 2p( 2.00)                                                            
Vna: chval, zval:    4.00000   4.00000

Vna:  Cut-off radius for the neutral-atom potential:   4.870301
comcore: Pseudo-core radius Rcore=  1.791422

atom: _________________________________________________________________________

<basis_specs>
===============================================================================
H                    Z=   1    Mass=  1.0100        Charge= 0.17977+309
Lmxo=0 Lmxkb= 2    BasisType=split      Semic=F
L=0  Nsemic=0  Cnfigmx=1
          i=1  nzeta=1  polorb=1  (1s)
            splnorm:   0.15000    
               vcte:    0.0000    
               rinn:    0.0000    
               qcoe:    0.0000    
               qyuk:    0.0000    
               qwid:   0.10000E-01
                rcs:    0.0000    
            lambdas:    1.0000    
-------------------------------------------------------------------------------
L=0  Nkbl=1  erefs: 0.17977+309
L=1  Nkbl=1  erefs: 0.17977+309
L=2  Nkbl=1  erefs: 0.17977+309
===============================================================================
</basis_specs>

atom: Called for H                     (Z =   1)

read_vps: Pseudopotential generation method:
read_vps: ATM3      Troullier-Martins                       
Valence charge for ps generation:    1.00000

xc_check: Exchange-correlation functional:
xc_check: GGA Perdew, Burke & Ernzerhof 1996
V l=0 = -2*Zval/r beyond r=  1.2977
V l=1 = -2*Zval/r beyond r=  1.2815
V l=2 = -2*Zval/r beyond r=  1.2656
All V_l potentials equal beyond r=  1.2977
This should be close to max(r_c) in ps generation
All pots = -2*Zval/r beyond r=  1.2977

VLOCAL1: 99.0% of the norm of Vloc inside     25.776 Ry
VLOCAL1: 99.9% of the norm of Vloc inside     58.745 Ry
atom: Maximum radius for 4*pi*r*r*local-pseudopot. charge    1.52711
atom: Maximum radius for r*vlocal+2*Zval:    1.28155
GHOST: No ghost state for L =  0
GHOST: No ghost state for L =  1
GHOST: No ghost state for L =  2

KBgen: Kleinman-Bylander projectors: 
   l= 0   rc=  1.434438   el= -0.477200   Ekb= -1.957043   kbcos= -0.361614
   l= 1   rc=  1.508111   el=  0.001076   Ekb= -0.424224   kbcos= -0.025441
   l= 2   rc=  1.527112   el=  0.002010   Ekb= -0.378578   kbcos= -0.002010

KBgen: Total number of Kleinman-Bylander projectors:    9
atom: -------------------------------------------------------------------------

atom: SANKEY-TYPE ORBITALS:

SPLIT: Orbitals with angular momentum L= 0

SPLIT: Basis orbitals for state 1s

SPLIT: PAO cut-off radius determined from an
SPLIT: energy shift=  0.020000 Ry

   izeta = 1
                 lambda =    1.000000
                     rc =    4.708991
                 energy =   -0.457754
                kinetic =    0.977134
    potential(screened) =   -1.434888
       potential(ionic) =   -1.963073

POLgen: Perturbative polarization orbital with L=  1

POLgen: Polarization orbital for state 1s

   izeta = 1
                     rc =    4.708991
                 energy =    0.764959
                kinetic =    1.478379
    potential(screened) =   -0.713420
       potential(ionic) =   -1.205754
atom: Total number of Sankey-type orbitals:  4

atm_pop: Valence configuration (for local Pseudopot. screening):
 1s( 1.00)                                                            
Vna: chval, zval:    1.00000   1.00000

Vna:  Cut-off radius for the neutral-atom potential:   4.708991

atom: _________________________________________________________________________

prinput: Basis input ----------------------------------------------------------

PAO.BasisType split     

%block ChemicalSpeciesLabel
    1    8 O                       # Species index, atomic number, species label
    2    6 C                       # Species index, atomic number, species label
    3    1 H                       # Species index, atomic number, species label
%endblock ChemicalSpeciesLabel

%block PAO.Basis                 # Define Basis set
O                     2                    # Species label, number of l-shells
 n=2   0   2                         # n, l, Nzeta 
   3.305      2.510   
   1.000      1.000   
 n=2   1   2 P   1                   # n, l, Nzeta, Polarization, NzetaPol
   3.937      2.542   
   1.000      1.000   
C                     2                    # Species label, number of l-shells
 n=2   0   2                         # n, l, Nzeta 
   4.088      3.347   
   1.000      1.000   
 n=2   1   2 P   1                   # n, l, Nzeta, Polarization, NzetaPol
   4.870      3.475   
   1.000      1.000   
H                     1                    # Species label, number of l-shells
 n=1   0   1 P   1                   # n, l, Nzeta, Polarization, NzetaPol
   4.709   
   1.000   
%endblock PAO.Basis

prinput: ----------------------------------------------------------------------

Dumping basis to NetCDF file O.ion.nc
Dumping basis to NetCDF file C.ion.nc
Dumping basis to NetCDF file H.ion.nc
coor:   Atomic-coordinates input format  =     Cartesian coordinates
coor:                                          (in Angstroms)

ioxv: Reading coordinates and velocities from file
! Info in XV file prevails over previous structure input
WARNING: ch4-o.VERLET_RESTART not found--reading only XV file and moving back 1 time step using Euler

siesta: Atomic coordinates (Bohr) and species
siesta:      0.00000   0.00000   0.00000  2        1
siesta:      1.19000   1.19000   1.19000  3        2
siesta:      1.19000  -1.19000  -1.19000  3        3
siesta:     -1.19000   1.19000  -1.19000  3        4
siesta:     -1.19000  -1.19000   1.19000  3        5
siesta:      5.25000   0.00000   0.00000  1        6

siesta: System type = molecule  

initatomlists: Number of atoms, orbitals, and projectors:      6    42    68

coxmol: Writing XMOL coordinates into file ch4-o.xyz                                                           

siesta: ******************** Simulation parameters ****************************
siesta:
siesta: The following are some of the parameters of the simulation.
siesta: A complete list of the parameters used, including default values,
siesta: can be found in file out.fdf
siesta:
redata: Spin configuration                          = none
redata: Number of spin components                   = 1
redata: Time-Reversal Symmetry                      = T
redata: Spin spiral                                 = F
redata: Long output                                 =   F
redata: Number of Atomic Species                    =        3
redata: Charge density info will appear in .RHO file
redata: Write Mulliken Pop.                         = NO
redata: Matel table size (NRTAB)                    =     1024
redata: Mesh Cutoff                                 =   200.0000 Ry
redata: Net charge of the system                    =     0.0000 |e|
redata: Min. number of SCF Iter                     =        0
redata: Max. number of SCF Iter                     =      150
redata: SCF convergence failure will abort job
redata: SCF mix quantity                            = Hamiltonian
redata: Mix DM or H after convergence               =   F
redata: Recompute H after scf cycle                 =   F
redata: Mix DM in first SCF step                    =   T
redata: Write Pulay info on disk                    =   F
redata: New DM Occupancy tolerance                  = 0.000000000001
redata: No kicks to SCF
redata: DM Mixing Weight for Kicks                  =     0.5000
redata: Require Harris convergence for SCF          =   F
redata: Harris energy tolerance for SCF             =     0.000100 eV
redata: Require DM convergence for SCF              =   T
redata: DM tolerance for SCF                        =     0.000300
redata: Require EDM convergence for SCF             =   F
redata: EDM tolerance for SCF                       =     0.001000 eV
redata: Require H convergence for SCF               =   T
redata: Hamiltonian tolerance for SCF               =     0.001000 eV
redata: Require (free) Energy convergence for SCF   =   F
redata: (free) Energy tolerance for SCF             =     0.000100 eV
redata: Using Saved Data (generic)                  =   F
redata: Use continuation files for DM               =   F
redata: Neglect nonoverlap interactions             =   F
redata: Method of Calculation                       = Diagonalization
redata: Electronic Temperature                      =   290.1109 K
redata: Fix the spin of the system                  =   F
redata: Dynamics option                             = Verlet MD run
redata: Initial MD time step                        =        1
redata:   Final MD time step                        =      100
redata: Length of MD time step                      =     1.0000 fs
redata: Initial Temperature of MD run               =     0.0000 K
redata: Perform a MD quench                         =   F
mix.SCF: Pulay mixing                            = Pulay
mix.SCF:    Variant                              = stable
mix.SCF:    History steps                        = 6
mix.SCF:    Linear mixing weight                 =     0.020000
mix.SCF:    Mixing weight                        =     0.020000
mix.SCF:    SVD condition                        = 0.1000E-07
redata: Save all siesta data in one NC              =   F
redata: ***********************************************************************

%block SCF.Mixers
  Pulay
%endblock SCF.Mixers

%block SCF.Mixer.Pulay
  # Mixing method
  method pulay
  variant stable

  # Mixing options
  weight 0.0200
  weight.linear 0.0200
  history 6
%endblock SCF.Mixer.Pulay

Size of DM history Fstack: 1
Total number of electrons:    14.000000
Total ionic charge:    14.000000

* ProcessorY, Blocksize:    1  24


* Orbital distribution balance (max,min):    42    42

 Kpoints in:            1 . Kpoints trimmed:            1

siesta: k-grid: Number of k-points =     1
siesta: k-grid: Cutoff (effective) =     3.969 Ang
siesta: k-grid: Supercell and displacements
siesta: k-grid:    1   0   0      0.000
siesta: k-grid:    0   1   0      0.000
siesta: k-grid:    0   0   1      0.000

diag: Algorithm                                     = D&C
diag: Parallel over k                               =   F
diag: Use parallel 2D distribution                  =   F
diag: Parallel block-size                           = 24
diag: Parallel distribution                         =     1 x     1
diag: Used triangular part                          = Lower
diag: Absolute tolerance                            =  0.100E-15
diag: Orthogonalization factor                      =  0.100E-05
diag: Memory factor                                 =  1.0000


ts: **************************************************************
ts: Save H and S matrices                           =    F
ts: Save DM and EDM matrices                        =    F
ts: Only save the overlap matrix S                  =    F
ts: **************************************************************

************************ Begin: TS CHECKS AND WARNINGS ************************
************************ End: TS CHECKS AND WARNINGS **************************


                     ====================================
                        Begin MD step =      1
                     ====================================

outcell: Unit cell vectors (Ang):
        7.937655    0.000000    0.000000
        0.000000    7.937655    0.000000
        0.000000    0.000000    7.937655

outcell: Cell vector modules (Ang)   :    7.937655    7.937655    7.937655
outcell: Cell angles (23,13,12) (deg):     90.0000     90.0000     90.0000
outcell: Cell volume (Ang**3)        :    500.1228
<dSpData1D:S at geom step 1
  <sparsity:sparsity for geom step 1
    nrows_g=42 nrows=42 sparsity=1.0000 nnzs=1764, refcount: 7>
  <dData1D:(new from dSpData1D) n=1764, refcount: 1>
refcount: 1>
new_DM -- step:     1
Initializing Density Matrix...
DM filled with atomic data:
<dSpData2D:DM initialized from atoms
  <sparsity:sparsity for geom step 1
    nrows_g=42 nrows=42 sparsity=1.0000 nnzs=1764, refcount: 8>
  <dData2D:DM n=1764 m=1, refcount: 1>
refcount: 1>
No. of atoms with KB's overlaping orbs in proc 0. Max # of overlaps:       6      38
New grid distribution:   1
           1       1:   36    1:   36    1:   36

InitMesh: MESH =    72 x    72 x    72 =      373248
InitMesh: (bp) =    36 x    36 x    36 =       46656
InitMesh: Mesh cutoff (required, used) =   200.000   227.396 Ry
ExtMesh (bp) on 0 =    84 x    84 x    84 =      592704
PhiOnMesh: Number of (b)points on node 0 =                46656
PhiOnMesh: nlist on node 0 =               219435

stepf: Fermi-Dirac step function

siesta: Program's energy decomposition (eV):
siesta: Ebs     =      -153.223051
siesta: Eions   =       935.229976
siesta: Ena     =       132.748626
siesta: Ekin    =       463.253827
siesta: Enl     =      -116.453324
siesta: Eso     =         0.000000
siesta: Edftu   =         0.000000
siesta: DEna    =       -10.835291
siesta: DUscf   =         3.236968
siesta: DUext   =         0.000000
siesta: Exc     =      -201.001639
siesta: eta*DQ  =         0.000000
siesta: Emadel  =         0.000000
siesta: Emeta   =         0.000000
siesta: Emolmec =         0.000000
siesta: Ekinion =         0.000000
siesta: Eharris =      -670.652976
siesta: Etot    =      -664.280808
siesta: FreeEng =      -664.371597

        iscf     Eharris(eV)        E_KS(eV)     FreeEng(eV)     dDmax    Ef(eV) dHmax(eV)
   scf:    1     -670.652976     -664.280808     -664.371597  1.857766 -6.447552  6.843439
timer: Routine,Calls,Time,% = IterSCF        1       5.300   9.72
   scf:    2     -664.545969     -664.418213     -664.510870  0.099452 -6.485467  6.520203
   scf:    3     -664.691693     -665.147451     -665.218047  0.760121 -7.179849  0.695512
   scf:    4     -665.209142     -665.183502     -665.256079  0.091739 -7.195883  0.762039
   scf:    5     -665.321702     -665.256420     -665.335045  0.087096 -7.177485  0.649106
   scf:    6     -661.940623     -664.468894     -664.505095  1.362900 -7.123908  0.925421
   scf:    7     -663.946838     -664.214795     -664.228040  0.129700 -7.058429  1.014951
   scf:    8     -665.705404     -665.092854     -665.169032  0.488643 -7.152998  0.647906
   scf:    9     -663.856345     -665.147389     -665.216723  1.139899 -7.153520  0.906882
   scf:   10     -664.639953     -665.006914     -665.062916  0.473821 -7.020525  1.845999
   scf:   11     -663.098837     -664.621885     -664.666482  1.140179 -7.049315  1.254592
   scf:   12     -664.954735     -664.795926     -664.850398  0.138648 -7.029496  1.150533
   scf:   13     -660.959936     -664.127512     -664.129163  1.894482 -6.909983  1.105708
   scf:   14     -664.118170     -664.122874     -664.123833  0.002157 -6.902589  1.136174
   scf:   15     -665.067574     -664.614335     -664.663661  0.251065 -6.974940  0.933441
   scf:   16     -662.802664     -664.838319     -664.894352  1.652023 -6.949492  1.004494
   scf:   17     -664.420593     -664.638799     -664.683782  0.157202 -6.969343  1.173177
   scf:   18     -660.954677     -664.112241     -664.112401  1.974087 -6.794865  1.200424
   scf:   19     -664.053076     -664.083034     -664.083035  0.018399 -6.569302  1.409587
   scf:   20     -661.106230     -664.184349     -664.192551  2.110860 -7.039030  1.331579
   scf:   21     -663.922744     -664.055503     -664.055503  0.044903 -7.010942  1.699194
   scf:   22     -661.408189     -664.413457     -664.413457  1.933440 -7.028320  2.814375
   scf:   23     -664.863225     -664.646151     -664.664353  0.093689 -6.922512  1.901884
   scf:   24     -664.260088     -664.459472     -664.459653  0.084512 -6.945112  2.571817
   scf:   25     -664.532600     -664.496723     -664.497669  0.013676 -6.923609  2.311584
   scf:   26     -660.629154     -664.142464     -664.147592  1.959048 -6.791115  1.341871
   scf:   27     -661.437923     -664.206675     -664.220233  2.132128 -6.721979  1.202162
   scf:   28     -661.467995     -664.466056     -664.466056  1.969306 -6.959315  2.466050
   scf:   29     -664.414796     -664.440632     -664.440632  0.008343 -6.968277  2.625332
   scf:   30     -664.560471     -664.501083     -664.501287  0.024448 -6.941650  2.194774
   scf:   31     -664.450593     -664.476037     -664.476052  0.012546 -6.943132  2.418514
   scf:   32     -664.483826     -664.479937     -664.479957  0.001974 -6.942595  2.386667
   scf:   33     -660.708524     -664.184591     -664.194932  1.963884 -6.870637  1.268678
   scf:   34     -661.133518     -664.105811     -664.105874  2.177231 -6.666205  1.299809
   scf:   35     -661.703970     -664.533672     -664.536123  1.972053 -6.906463  1.988395
   scf:   36     -664.764198     -664.650355     -664.669772  0.082316 -6.916305  1.808383
   scf:   37     -664.327770     -664.491674     -664.491743  0.089246 -6.869049  2.190126
   scf:   38     -665.421123     -665.112120     -665.173952  0.604902 -6.887896  0.850479
   scf:   39     -662.011013     -664.608418     -664.656905  1.363799 -6.832676  1.495366
   scf:   40     -663.971544     -664.308942     -664.333527  0.269299 -6.792909  1.426959
   scf:   41     -665.169444     -664.867957     -664.933132  0.636896 -6.828068  1.555449
   scf:   42     -664.895098     -665.081283     -665.161041  0.697302 -6.892650  1.030779
   scf:   43     -664.555819     -664.838219     -664.901598  0.202395 -6.749334  1.541534
   scf:   44     -665.007159     -664.931099     -665.000263  0.157969 -6.850579  1.423973
   scf:   45     -662.478636     -664.177090     -664.189115  1.273017 -6.662582  1.515850
   scf:   46     -664.602171     -664.395409     -664.427250  0.157943 -6.829146  1.385182
   scf:   47     -664.999112     -664.718917     -664.775871  0.273787 -6.863225  1.381715
   scf:   48     -664.087805     -664.427193     -664.462422  0.283569 -6.908709  1.250307
   scf:   49     -661.665613     -664.486843     -664.486844  1.960242 -7.017932  2.210097
   scf:   50     -661.778038     -664.465106     -664.499960  1.811254 -6.907893  0.970076
   scf:   51     -661.812310     -664.509204     -664.509988  1.775789 -6.940451  2.183806
   scf:   52     -665.077173     -664.811715     -664.846585  0.208576 -6.929969  1.568779
   scf:   53     -664.179156     -664.512069     -664.512367  0.216300 -6.964727  2.131534
   scf:   54     -660.868214     -664.280729     -664.303936  1.973571 -6.698149  1.562552
   scf:   55     -664.796136     -664.572150     -664.623825  0.326066 -6.349064  2.187331
   scf:   56     -664.738114     -664.657069     -664.712980  0.072978 -6.453235  2.038186
   scf:   57     -664.722276     -664.690120     -664.747858  0.037162 -6.475100  2.007003
   scf:   58     -661.348620     -664.456652     -664.456652  1.932479 -6.958619  2.552441
   scf:   59     -660.434747     -664.082391     -664.083632  1.939938 -6.550712  1.566778
   scf:   60     -663.052863     -665.098810     -665.159545  1.408671 -6.888593  0.838699
   scf:   61     -662.520966     -664.785277     -664.845477  1.418998 -6.817045  1.534114
   scf:   62     -665.195064     -665.084345     -665.164442  0.500902 -6.882731  1.278144
   scf:   63     -663.950510     -665.149324     -665.214232  1.277150 -6.924163  0.843942
   scf:   64     -664.858435     -665.244608     -665.321153  0.682355 -6.878734  0.529972
   scf:   65     -663.607074     -664.934786     -665.003721  1.061677 -6.763663  1.581515
   scf:   66     -663.030471     -664.231000     -664.246717  0.931343 -6.600818  1.335151
   scf:   67     -665.277572     -664.862066     -664.927362  0.602129 -6.838389  1.320764
   scf:   68     -664.928472     -664.909032     -664.976239  0.190215 -6.811128  1.496315
   scf:   69     -664.959139     -664.942906     -665.012238  0.157846 -6.819518  1.528546
   scf:   70     -664.130292     -664.637613     -664.689426  0.563934 -6.562564  1.693095
   scf:   71     -661.440342     -664.454065     -664.454065  1.966298 -6.926827  2.529758
   scf:   72     -664.694920     -664.576347     -664.584322  0.032707 -6.926106  1.829260
   scf:   73     -664.790951     -664.685095     -664.707472  0.077119 -6.928726  1.652549
   scf:   74     -663.152835     -665.076251     -665.155943  1.768943 -6.889670  1.302379
   scf:   75     -665.266578     -665.442020     -665.533924  0.837998 -6.919377  0.213300
   scf:   76     -662.949553     -664.498536     -664.498544  1.036923 -6.935414  2.235913
   scf:   77     -664.539707     -664.519199     -664.519495  0.010264 -6.936051  2.068672
   scf:   78     -664.525702     -664.522456     -664.523008  0.003831 -6.919871  2.022209
   scf:   79     -664.602909     -664.562855     -664.569109  0.020332 -6.937470  1.916168
   scf:   80     -664.538754     -664.550820     -664.555196  0.007570 -6.937079  1.941008
   scf:   81     -661.342587     -664.487884     -664.527979  1.951389 -6.792890  1.471261
   scf:   82     -661.754115     -664.199983     -664.210022  1.872009 -6.762205  1.191632
   scf:   83     -662.495320     -664.732823     -664.760187  1.840876 -6.885459  1.544438
   scf:   84     -664.371729     -664.557622     -664.563066  0.129370 -6.882715  1.828663
   scf:   85     -662.476122     -664.939278     -665.008624  1.951190 -6.838575  1.469509
   scf:   86     -663.533605     -664.527352     -664.570465  0.941694 -6.890546  1.333605
   scf:   87     -664.902724     -665.053630     -665.131848  0.969786 -6.877323  1.262932
   scf:   88     -665.262842     -665.407213     -665.497437  0.805678 -6.902927  0.277355
   scf:   89     -665.403580     -665.432203     -665.522819  0.239270 -6.919376  0.195621
   scf:   90     -663.203749     -664.571140     -664.578932  0.954452 -6.912890  1.862944
   scf:   91     -664.835443     -664.705449     -664.730675  0.094888 -6.923147  1.674906
   scf:   92     -665.425543     -665.110845     -665.174656  0.368149 -6.899527  0.963630
   scf:   93     -664.196183     -664.693297     -664.716617  0.381914 -6.925866  1.671820
   scf:   94     -664.482151     -664.589079     -664.598862  0.075254 -6.929197  1.840747
   scf:   95     -661.205090     -664.437320     -664.475825  1.905725 -6.577382  1.733633
   scf:   96     -662.089641     -664.716925     -664.742350  1.807526 -6.890469  1.574202
   scf:   97     -664.330078     -664.529768     -664.531101  0.130295 -6.925310  1.988935
   scf:   98     -664.964773     -665.421105     -665.516290  1.383447 -6.910366  0.520072
   scf:   99     -662.973842     -664.692456     -664.714964  1.275805 -6.913923  1.658443
   scf:  100     -662.870478     -664.972318     -665.045423  1.790883 -6.880418  1.240881
   scf:  101     -665.380727     -665.449030     -665.542016  0.811467 -6.916405  0.177333
   scf:  102     -664.617491     -665.144204     -665.210768  0.578869 -6.926829  0.970373
   scf:  103     -665.286597     -665.391181     -665.481978  0.672429 -6.911601  0.336680
   scf:  104     -665.461995     -665.440051     -665.532512  0.157952 -6.915378  0.169678
   scf:  105     -665.300272     -665.417862     -665.513004  0.306741 -6.914634  0.521712
   scf:  106     -665.433867     -665.455756     -665.549583  0.268130 -6.922206  0.169709
   scf:  107     -665.403523     -665.435270     -665.526387  0.122393 -6.916771  0.178951
   scf:  108     -665.434126     -665.434700     -665.525761  0.001690 -6.916256  0.180772
   scf:  109     -665.395872     -665.416616     -665.506081  0.045556 -6.875216  0.285235
   scf:  110     -665.461110     -665.458692     -665.553223  0.212828 -6.957899  0.073505
   scf:  111     -665.458759     -665.458792     -665.553406  0.010672 -6.971081  0.063386
   scf:  112     -665.458958     -665.458892     -665.553470  0.004524 -6.966609  0.032952
   scf:  113     -665.458751     -665.458843     -665.553509  0.006544 -6.963195  0.017061
   scf:  114     -665.458918     -665.458886     -665.553520  0.002726 -6.962024  0.016749
   scf:  115     -665.458585     -665.458767     -665.553462  0.006962 -6.961724  0.017892
   scf:  116     -665.458904     -665.458850     -665.553517  0.005001 -6.961799  0.013460
   scf:  117     -665.458850     -665.458850     -665.553518  0.000396 -6.961245  0.013245
   scf:  118     -665.458879     -665.458865     -665.553523  0.000834 -6.960211  0.012498
   scf:  119     -665.458898     -665.458883     -665.553524  0.001031 -6.960740  0.007266
   scf:  120     -665.458880     -665.458881     -665.553524  0.000132 -6.960874  0.007258
   scf:  121     -665.458859     -665.458871     -665.553524  0.001002 -6.961195  0.005766
   scf:  122     -665.458893     -665.458883     -665.553526  0.001524 -6.960413  0.000850
   scf:  123     -665.458888     -665.458885     -665.553526  0.000205 -6.960311  0.000556

SCF Convergence by DM+H criterion
max |DM_out - DM_in|         :     0.0002048088
max |H_out - H_in|      (eV) :     0.0005559315
SCF cycle converged after 123 iterations

Using DM_out to compute the final energy and forces
No. of atoms with KB's overlaping orbs in proc 0. Max # of overlaps:       6      38

siesta: E_KS(eV) =             -665.4589

siesta: E_KS - E_eggbox =      -665.4589

siesta: Atomic forces (eV/Ang):
----------------------------------------
   Tot    0.112330   -0.000000   -0.000000
----------------------------------------
   Max    0.523620
   Res    0.339558    sqrt( Sum f_i^2 / 3N )
----------------------------------------
   Max    0.523620    constrained

Stress tensor Voigt[x,y,z,yz,xz,xy] (kbar):      -94.06       -3.22       -3.22       -0.01        0.00       -0.00
(Free)E + p*V (eV/cell)     -655.0971
Target enthalpy (eV/cell)     -665.5535

siesta: Stress tensor (static) (eV/Ang**3):
        -0.000677    0.000000    0.000000
        -0.000000   -0.002007   -0.000009
         0.000000   -0.000009   -0.002007

siesta: Pressure (static):          2.50578326  kBar

siesta: Stress tensor (total) (eV/Ang**3):
        -0.058708    0.000000    0.000000
        -0.000000   -0.002007   -0.000009
         0.000000   -0.000009   -0.002007

siesta: Pressure (total):         33.49808989  kBar

siesta: Temp_ion =   22616.878 K

                     ====================================
                        Begin MD step =      2
                     ====================================

outcell: Unit cell vectors (Ang):
        7.937655    0.000000    0.000000
        0.000000    7.937655    0.000000
        0.000000    0.000000    7.937655

outcell: Cell vector modules (Ang)   :    7.937655    7.937655    7.937655
outcell: Cell angles (23,13,12) (deg):     90.0000     90.0000     90.0000
outcell: Cell volume (Ang**3)        :    500.1228
<dSpData1D:S at geom step 2
  <sparsity:sparsity for geom step 2
    nrows_g=42 nrows=42 sparsity=1.0000 nnzs=1764, refcount: 7>
  <dData1D:(new from dSpData1D) n=1764, refcount: 1>
refcount: 1>
new_DM -- step:     2
Re-using DM from previous geometries...
Number of DMs in history: 1
 DM extrapolation coefficients: 
1   1.00000
New DM after history re-use:
<dSpData2D:SpM extrapolated using coords
  <sparsity:sparsity for geom step 2
    nrows_g=42 nrows=42 sparsity=1.0000 nnzs=1764, refcount: 9>
  <dData2D:(temp array for extrapolation) n=1764 m=1, refcount: 1>
refcount: 1>
No. of atoms with KB's overlaping orbs in proc 0. Max # of overlaps:       6      42
New grid distribution:   1
           1       1:   36    1:   36    1:   36

InitMesh: MESH =    72 x    72 x    72 =      373248
InitMesh: (bp) =    36 x    36 x    36 =       46656
InitMesh: Mesh cutoff (required, used) =   200.000   227.396 Ry
ExtMesh (bp) on 0 =    84 x    84 x    84 =      592704
PhiOnMesh: Number of (b)points on node 0 =                46656
PhiOnMesh: nlist on node 0 =               219547

        iscf     Eharris(eV)        E_KS(eV)     FreeEng(eV)     dDmax    Ef(eV) dHmax(eV)
   scf:    1     -663.877534     -664.990972     -665.032806  0.905616 -6.818111  1.784251
   scf:    2     -660.068816     -664.004243     -664.035831  1.757321 -5.382535  4.195825
   scf:    3     -665.243736     -664.795510     -664.863244  0.736351 -6.477656  2.214332
   scf:    4     -665.343254     -665.488038     -665.578945  0.978928 -6.748578  0.093187
   scf:    5     -665.403498     -665.453603     -665.539599  0.142891 -6.759967  0.394212
   scf:    6     -664.121978     -664.927216     -664.963764  0.624252 -6.848469  2.029514
   scf:    7     -663.430338     -665.129176     -665.214723  1.528019 -6.710937  1.359700
   scf:    8     -664.917145     -665.026725     -665.107315  0.082947 -6.695231  1.540245
   scf:    9     -664.693515     -664.867101     -664.937021  0.117091 -6.632240  1.825670
   scf:   10     -665.584649     -665.279885     -665.371277  0.352190 -6.754969  0.978539
   scf:   11     -662.380721     -664.666021     -664.666579  1.578118 -6.842969  2.473684
   scf:   12     -664.817658     -664.742584     -664.754581  0.045182 -6.815928  2.206727
   scf:   13     -662.620958     -664.980075     -665.058176  1.803840 -6.681934  1.628882
   scf:   14     -661.866539     -664.635424     -664.635630  1.843821 -6.889271  2.734182
   scf:   15     -665.767035     -665.326388     -665.399750  0.583224 -6.791014  0.968277
   scf:   16     -664.579216     -664.993078     -665.035222  0.346315 -6.812975  1.774201
   scf:   17     -663.907912     -665.226393     -665.315878  1.392859 -6.745283  1.112884
   scf:   18     -665.516285     -665.487393     -665.580844  0.532539 -6.775795  0.107879
   scf:   19     -663.100507     -664.683817     -664.688323  1.086355 -6.845180  2.428362
   scf:   20     -664.833221     -664.759423     -664.774164  0.043560 -6.817903  2.191037
   scf:   21     -664.840443     -665.417970     -665.512125  1.270014 -6.739283  0.527663
   scf:   22     -663.377106     -664.880721     -664.909603  1.189011 -6.793005  1.884596
   scf:   23     -665.113192     -665.457878     -665.552542  1.098777 -6.743692  0.448450
   scf:   24     -665.019108     -665.371357     -665.448613  0.588390 -6.757910  0.713500
   scf:   25     -665.506945     -665.483159     -665.573850  0.331934 -6.749664  0.124009
   scf:   26     -665.485029     -665.484211     -665.575314  0.017103 -6.749240  0.130095
   scf:   27     -665.491118     -665.493638     -665.585320  0.116649 -6.751114  0.084514
   scf:   28     -665.496629     -665.495345     -665.587589  0.022934 -6.749608  0.092708
   scf:   29     -665.489752     -665.492905     -665.584397  0.030216 -6.749943  0.087609
   scf:   30     -665.483656     -665.489156     -665.579895  0.038604 -6.751033  0.101983
   scf:   31     -665.494517     -665.496545     -665.589968  0.110772 -6.775768  0.029294
   scf:   32     -665.496752     -665.496746     -665.590085  0.013926 -6.777459  0.022110
   scf:   33     -665.496675     -665.496736     -665.590079  0.007459 -6.777548  0.020027
   scf:   34     -665.496707     -665.496741     -665.590106  0.006709 -6.778222  0.019450
   scf:   35     -665.496831     -665.496790     -665.590093  0.003250 -6.778169  0.015439
   scf:   36     -665.496781     -665.496786     -665.590099  0.000499 -6.779049  0.014136
   scf:   37     -665.496676     -665.496737     -665.590124  0.003530 -6.782826  0.011952
   scf:   38     -665.496758     -665.496748     -665.590124  0.000602 -6.782704  0.010729
   scf:   39     -665.496687     -665.496721     -665.590135  0.001420 -6.781642  0.001242
   scf:   40     -665.496720     -665.496721     -665.590135  0.000105 -6.781629  0.001158
   scf:   41     -665.496726     -665.496724     -665.590135  0.000581 -6.781554  0.001206
   scf:   42     -665.496727     -665.496725     -665.590135  0.000140 -6.781464  0.001123
   scf:   43     -665.496729     -665.496727     -665.590135  0.000221 -6.781365  0.001025
   scf:   44     -665.496728     -665.496728     -665.590135  0.000065 -6.781358  0.001066
   scf:   45     -665.496723     -665.496725     -665.590135  0.000183 -6.781498  0.000635

SCF Convergence by DM+H criterion
max |DM_out - DM_in|         :     0.0001829862
max |H_out - H_in|      (eV) :     0.0006350066
SCF cycle converged after 45 iterations

Using DM_out to compute the final energy and forces
No. of atoms with KB's overlaping orbs in proc 0. Max # of overlaps:       6      42

siesta: E_KS(eV) =             -665.4967

siesta: Atomic forces (eV/Ang):
----------------------------------------
   Tot    0.004643   -0.000000   -0.000000
----------------------------------------
   Max    0.459367
   Res    0.308639    sqrt( Sum f_i^2 / 3N )
----------------------------------------
   Max    0.459367    constrained

Stress tensor Voigt[x,y,z,yz,xz,xy] (kbar):      -93.86       -2.94       -2.94       -0.06       -0.00        0.00
(Free)E + p*V (eV/cell)     -655.2120
Target enthalpy (eV/cell)     -665.5901

siesta: Stress tensor (static) (eV/Ang**3):
        -0.000553   -0.000000   -0.000000
         0.000000   -0.001835   -0.000037
        -0.000000   -0.000037   -0.001835

siesta: Pressure (static):          2.25517029  kBar

siesta: Stress tensor (total) (eV/Ang**3):
        -0.058584   -0.000000   -0.000000
         0.000000   -0.001835   -0.000037
        -0.000000   -0.000037   -0.001835

siesta: Pressure (total):         33.24747691  kBar

siesta: Temp_ion =   22664.631 K

                     ====================================
                        Begin MD step =      3
                     ====================================

outcell: Unit cell vectors (Ang):
        7.937655    0.000000    0.000000
        0.000000    7.937655    0.000000
        0.000000    0.000000    7.937655

outcell: Cell vector modules (Ang)   :    7.937655    7.937655    7.937655
outcell: Cell angles (23,13,12) (deg):     90.0000     90.0000     90.0000
outcell: Cell volume (Ang**3)        :    500.1228
<dSpData1D:S at geom step 3
  <sparsity:sparsity for geom step 3
    nrows_g=42 nrows=42 sparsity=1.0000 nnzs=1764, refcount: 7>
  <dData1D:(new from dSpData1D) n=1764, refcount: 1>
refcount: 1>
new_DM -- step:     3
Re-using DM from previous geometries...
Number of DMs in history: 1
 DM extrapolation coefficients: 
1   1.00000
New DM after history re-use:
<dSpData2D:SpM extrapolated using coords
  <sparsity:sparsity for geom step 3
    nrows_g=42 nrows=42 sparsity=1.0000 nnzs=1764, refcount: 9>
  <dData2D:(temp array for extrapolation) n=1764 m=1, refcount: 1>
refcount: 1>
No. of atoms with KB's overlaping orbs in proc 0. Max # of overlaps:       6      42
New grid distribution:   1
           1       1:   36    1:   36    1:   36

InitMesh: MESH =    72 x    72 x    72 =      373248
InitMesh: (bp) =    36 x    36 x    36 =       46656
InitMesh: Mesh cutoff (required, used) =   200.000   227.396 Ry
ExtMesh (bp) on 0 =    84 x    84 x    84 =      592704
PhiOnMesh: Number of (b)points on node 0 =                46656
PhiOnMesh: nlist on node 0 =               219568

        iscf     Eharris(eV)        E_KS(eV)     FreeEng(eV)     dDmax    Ef(eV) dHmax(eV)
   scf:    1     -663.851572     -665.020884     -665.041986  0.950773 -6.554588  1.978458
   scf:    2     -658.667685     -663.641865     -663.673088  1.904207 -4.999123  5.183350
   scf:    3     -665.201825     -664.646931     -664.716156  0.814138 -6.227310  2.697079
   scf:    4     -664.577269     -665.425384     -665.494620  1.411143 -6.478320  0.681636
   scf:    5     -665.375186     -665.400886     -665.467148  0.039602 -6.483815  0.787536
   scf:    6     -665.575228     -665.541742     -665.629107  0.370497 -6.517488  0.146078
   scf:    7     -665.499587     -665.533099     -665.625356  0.168949 -6.509060  0.261762
   scf:    8     -664.499730     -665.158170     -665.248318  0.579075 -6.455600  1.563035
   scf:    9     -665.236164     -665.197705     -665.288972  0.035722 -6.458604  1.488159
   scf:   10     -665.598900     -665.429237     -665.524636  0.266924 -6.492209  0.861799
   scf:   11     -665.578087     -665.541693     -665.633772  0.297305 -6.512287  0.185044
   scf:   12     -665.533312     -665.538020     -665.630701  0.024803 -6.507796  0.258399
   scf:   13     -665.540407     -665.539243     -665.631751  0.007472 -6.504465  0.251310
   scf:   14     -665.539877     -665.546246     -665.635158  0.126729 -6.539454  0.116865
   scf:   15     -665.546376     -665.546954     -665.637148  0.039745 -6.528408  0.017373
   scf:   16     -665.546626     -665.546810     -665.637227  0.007171 -6.531662  0.010388
   scf:   17     -665.546664     -665.546740     -665.637235  0.002503 -6.534217  0.006433
   scf:   18     -665.546730     -665.546735     -665.637235  0.000168 -6.534199  0.006467
   scf:   19     -665.546703     -665.546719     -665.637235  0.000735 -6.534607  0.004914
   scf:   20     -665.546722     -665.546720     -665.637235  0.000222 -6.534672  0.004109
   scf:   21     -665.546713     -665.546717     -665.637236  0.000747 -6.535320  0.000859
   scf:   22     -665.546720     -665.546718     -665.637236  0.000050 -6.535302  0.000855

SCF Convergence by DM+H criterion
max |DM_out - DM_in|         :     0.0000503016
max |H_out - H_in|      (eV) :     0.0008548310
SCF cycle converged after 22 iterations

Using DM_out to compute the final energy and forces
No. of atoms with KB's overlaping orbs in proc 0. Max # of overlaps:       6      42

siesta: E_KS(eV) =             -665.5467

siesta: Atomic forces (eV/Ang):
----------------------------------------
   Tot   -0.128254   -0.000000   -0.000000
----------------------------------------
   Max    0.342350
   Res    0.211681    sqrt( Sum f_i^2 / 3N )
----------------------------------------
   Max    0.342350    constrained

Stress tensor Voigt[x,y,z,yz,xz,xy] (kbar):      -92.68       -1.88       -1.88       -0.05        0.00        0.00
(Free)E + p*V (eV/cell)     -655.6019
Target enthalpy (eV/cell)     -665.6372

siesta: Stress tensor (static) (eV/Ang**3):
         0.000286   -0.000000   -0.000000
         0.000000   -0.001165   -0.000028
         0.000000   -0.000028   -0.001165

siesta: Pressure (static):          1.09141994  kBar

siesta: Stress tensor (total) (eV/Ang**3):
        -0.057845   -0.000000   -0.000000
         0.000000   -0.001176   -0.000028
         0.000000   -0.000028   -0.001176

siesta: Pressure (total):         32.14916366  kBar

siesta: Temp_ion =   22748.301 K

                     ====================================
                        Begin MD step =      4
                     ====================================

outcell: Unit cell vectors (Ang):
        7.937655    0.000000    0.000000
        0.000000    7.937655    0.000000
        0.000000    0.000000    7.937655

outcell: Cell vector modules (Ang)   :    7.937655    7.937655    7.937655
outcell: Cell angles (23,13,12) (deg):     90.0000     90.0000     90.0000
outcell: Cell volume (Ang**3)        :    500.1228
<dSpData1D:S at geom step 4
  <sparsity:sparsity for geom step 4
    nrows_g=42 nrows=42 sparsity=1.0000 nnzs=1764, refcount: 7>
  <dData1D:(new from dSpData1D) n=1764, refcount: 1>
refcount: 1>
new_DM -- step:     4
Re-using DM from previous geometries...
Number of DMs in history: 1
 DM extrapolation coefficients: 
1   1.00000
New DM after history re-use:
<dSpData2D:SpM extrapolated using coords
  <sparsity:sparsity for geom step 4
    nrows_g=42 nrows=42 sparsity=1.0000 nnzs=1764, refcount: 9>
  <dData2D:(temp array for extrapolation) n=1764 m=1, refcount: 1>
refcount: 1>
No. of atoms with KB's overlaping orbs in proc 0. Max # of overlaps:       6      42
New grid distribution:   1
           1       1:   36    1:   36    1:   36

InitMesh: MESH =    72 x    72 x    72 =      373248
InitMesh: (bp) =    36 x    36 x    36 =       46656
InitMesh: Mesh cutoff (required, used) =   200.000   227.396 Ry
ExtMesh (bp) on 0 =    84 x    84 x    84 =      592704
PhiOnMesh: Number of (b)points on node 0 =                46656
PhiOnMesh: nlist on node 0 =               219357

        iscf     Eharris(eV)        E_KS(eV)     FreeEng(eV)     dDmax    Ef(eV) dHmax(eV)
   scf:    1     -664.211713     -665.205542     -665.212617  0.887085 -6.240626  1.970587
   scf:    2     -657.075052     -663.177505     -663.212081  1.980264 -4.759088  6.008259
   scf:    3     -665.725490     -664.825594     -664.913284  0.913586 -5.993238  2.634708
   scf:    4     -664.181146     -665.376906     -665.410633  1.516447 -6.156187  1.139065
   scf:    5     -665.397677     -665.387354     -665.422824  0.012623 -6.153669  1.096714
   scf:    6     -665.483924     -665.440651     -665.487744  0.101948 -6.226906  1.210440
   scf:    7     -665.480932     -665.577656     -665.661264  0.515352 -6.198916  0.192623
   scf:    8     -664.325084     -665.121183     -665.211135  0.606243 -6.151613  1.761782
   scf:    9     -664.977601     -665.051085     -665.138701  0.060499 -6.154351  1.832026
   scf:   10     -665.200404     -665.127104     -665.216335  0.047288 -6.159213  1.706443
   scf:   11     -665.598920     -665.388454     -665.480376  0.220535 -6.163250  1.175504
   scf:   12     -665.671154     -665.584610     -665.673385  0.274623 -6.221518  0.280740
   scf:   13     -665.609920     -665.603634     -665.687917  0.112678 -6.231177  0.059902
   scf:   14     -665.603901     -665.603834     -665.687832  0.010951 -6.238456  0.078876
   scf:   15     -665.604819     -665.604529     -665.687636  0.019009 -6.238599  0.116844
   scf:   16     -665.599730     -665.602810     -665.687493  0.034264 -6.227965  0.030601
   scf:   17     -665.604930     -665.604045     -665.688030  0.015049 -6.215225  0.009708
   scf:   18     -665.604427     -665.604246     -665.688045  0.003941 -6.214051  0.005259
   scf:   19     -665.604275     -665.604261     -665.688044  0.000893 -6.214339  0.003176
   scf:   20     -665.604224     -665.604242     -665.688045  0.000401 -6.214328  0.003726
   scf:   21     -665.604193     -665.604218     -665.688045  0.000467 -6.214496  0.002783
   scf:   22     -665.604210     -665.604214     -665.688045  0.000172 -6.214716  0.001900
   scf:   23     -665.604156     -665.604185     -665.688046  0.000612 -6.215062  0.001204
   scf:   24     -665.604225     -665.604205     -665.688046  0.000459 -6.214887  0.000863
   scf:   25     -665.604208     -665.604207     -665.688046  0.000040 -6.214913  0.000727

SCF Convergence by DM+H criterion
max |DM_out - DM_in|         :     0.0000400339
max |H_out - H_in|      (eV) :     0.0007270152
SCF cycle converged after 25 iterations

Using DM_out to compute the final energy and forces
No. of atoms with KB's overlaping orbs in proc 0. Max # of overlaps:       6      42

siesta: E_KS(eV) =             -665.6042

siesta: Atomic forces (eV/Ang):
----------------------------------------
   Tot   -0.089076   -0.000000   -0.000000
----------------------------------------
   Max    0.448650
   Res    0.149165    sqrt( Sum f_i^2 / 3N )
----------------------------------------
   Max    0.448650    constrained

Stress tensor Voigt[x,y,z,yz,xz,xy] (kbar):      -90.21       -0.52       -0.52       -0.01        0.00        0.00
(Free)E + p*V (eV/cell)     -656.1947
Target enthalpy (eV/cell)     -665.6880

siesta: Stress tensor (static) (eV/Ang**3):
         0.001997    0.000000    0.000000
         0.000000   -0.000287   -0.000005
         0.000000   -0.000005   -0.000287

siesta: Pressure (static):         -0.75962719  kBar

siesta: Stress tensor (total) (eV/Ang**3):
        -0.056301    0.000000    0.000000
         0.000000   -0.000322   -0.000006
         0.000000   -0.000006   -0.000322

siesta: Pressure (total):         30.41277087  kBar

siesta: Temp_ion =   22847.437 K

                     ====================================
                        Begin MD step =      5
                     ====================================

outcell: Unit cell vectors (Ang):
        7.937655    0.000000    0.000000
        0.000000    7.937655    0.000000
        0.000000    0.000000    7.937655

outcell: Cell vector modules (Ang)   :    7.937655    7.937655    7.937655
outcell: Cell angles (23,13,12) (deg):     90.0000     90.0000     90.0000
outcell: Cell volume (Ang**3)        :    500.1228
<dSpData1D:S at geom step 5
  <sparsity:sparsity for geom step 5
    nrows_g=42 nrows=42 sparsity=1.0000 nnzs=1764, refcount: 7>
  <dData1D:(new from dSpData1D) n=1764, refcount: 1>
refcount: 1>
new_DM -- step:     5
Re-using DM from previous geometries...
Number of DMs in history: 1
 DM extrapolation coefficients: 
1   1.00000
New DM after history re-use:
<dSpData2D:SpM extrapolated using coords
  <sparsity:sparsity for geom step 5
    nrows_g=42 nrows=42 sparsity=1.0000 nnzs=1764, refcount: 9>
  <dData2D:(temp array for extrapolation) n=1764 m=1, refcount: 1>
refcount: 1>
No. of atoms with KB's overlaping orbs in proc 0. Max # of overlaps:       6      42
New grid distribution:   1
           1       1:   36    1:   36    1:   36

InitMesh: MESH =    72 x    72 x    72 =      373248
InitMesh: (bp) =    36 x    36 x    36 =       46656
InitMesh: Mesh cutoff (required, used) =   200.000   227.396 Ry
ExtMesh (bp) on 0 =    84 x    84 x    84 =      592704
PhiOnMesh: Number of (b)points on node 0 =                46656
PhiOnMesh: nlist on node 0 =               219581

        iscf     Eharris(eV)        E_KS(eV)     FreeEng(eV)     dDmax    Ef(eV) dHmax(eV)
   scf:    1     -664.829176     -665.502857     -665.504265  0.720224 -5.873522  1.732483
   scf:    2     -655.278547     -662.560075     -662.597220  2.012506 -4.683160  6.568152
   scf:    3     -664.961149     -665.632845     -665.662149  1.892519 -5.705159  0.361346
   scf:    4     -665.658290     -665.646186     -665.680970  0.038533 -5.696111  0.299268
   scf:    5     -665.424413     -665.555147     -665.564204  0.138598 -5.818922  1.260490
   scf:    6     -660.415008     -664.239618     -664.320380  1.685267 -5.742269  3.236558
   scf:    7     -665.110929     -664.696626     -664.785892  0.214286 -5.779013  2.636023
   scf:    8     -666.010776     -665.537764     -665.624716  0.630479 -5.806190  0.997213
   scf:    9     -664.506102     -665.094949     -665.187810  0.398782 -5.805254  1.996109
   scf:   10     -663.489353     -664.365628     -664.448927  0.405292 -5.879283  2.746303
   scf:   11     -666.113541     -665.595267     -665.679918  0.872181 -5.828611  0.687588
   scf:   12     -665.713464     -665.690950     -665.758392  0.298724 -5.803660  0.054029
   scf:   13     -665.682616     -665.691074     -665.749543  0.110791 -5.752706  0.154641
   scf:   14     -665.687997     -665.689671     -665.747083  0.010606 -5.764865  0.194622
   scf:   15     -665.676603     -665.690061     -665.758160  0.129453 -5.783014  0.138209
   scf:   16     -665.681279     -665.691181     -665.750450  0.108690 -5.786754  0.171241
   scf:   17     -665.686768     -665.692150     -665.759433  0.096814 -5.814310  0.027741
   scf:   18     -665.692001     -665.692077     -665.759460  0.001266 -5.814162  0.022645
   scf:   19     -665.691024     -665.691616     -665.759619  0.009085 -5.814657  0.014866
   scf:   20     -665.692037     -665.691830     -665.759604  0.003114 -5.814508  0.012604
   scf:   21     -665.691694     -665.691762     -665.759611  0.000935 -5.814483  0.013540
   scf:   22     -665.691759     -665.691761     -665.759612  0.000586 -5.814356  0.013345
   scf:   23     -665.691823     -665.691792     -665.759609  0.000512 -5.813696  0.015077
   scf:   24     -665.691818     -665.691805     -665.759607  0.000202 -5.813636  0.015233
   scf:   25     -665.691801     -665.691804     -665.759603  0.001637 -5.813944  0.014355
   scf:   26     -665.691685     -665.691745     -665.759606  0.000856 -5.814269  0.012975
   scf:   27     -665.691583     -665.691665     -665.759612  0.001182 -5.814845  0.010713
   scf:   28     -665.691382     -665.691530     -665.759630  0.003645 -5.818043  0.003871
   scf:   29     -665.691517     -665.691523     -665.759631  0.000083 -5.818087  0.003877
   scf:   30     -665.691446     -665.691485     -665.759632  0.000443 -5.818130  0.003568
   scf:   31     -665.691565     -665.691525     -665.759632  0.000591 -5.817962  0.003887
   scf:   32     -665.691527     -665.691526     -665.759631  0.000025 -5.817951  0.003917
   scf:   33     -665.691533     -665.691529     -665.759631  0.000065 -5.817983  0.003921
   scf:   34     -665.691535     -665.691532     -665.759631  0.000248 -5.818011  0.004042
   scf:   35     -665.691531     -665.691531     -665.759631  0.000352 -5.817765  0.004619
   scf:   36     -665.691515     -665.691523     -665.759631  0.000322 -5.818112  0.003661
   scf:   37     -665.691439     -665.691481     -665.759632  0.000547 -5.818385  0.002930
   scf:   38     -665.691250     -665.691366     -665.759633  0.001601 -5.819312  0.002703
   scf:   39     -665.691362     -665.691364     -665.759633  0.000098 -5.819219  0.002085
   scf:   40     -665.691424     -665.691394     -665.759633  0.000362 -5.818884  0.001915
   scf:   41     -665.691462     -665.691428     -665.759634  0.000618 -5.819094  0.000816
   scf:   42     -665.691453     -665.691440     -665.759634  0.000330 -5.819144  0.000445
   scf:   43     -665.691425     -665.691433     -665.759634  0.000160 -5.819184  0.000275

SCF Convergence by DM+H criterion
max |DM_out - DM_in|         :     0.0001595057
max |H_out - H_in|      (eV) :     0.0002745086
SCF cycle converged after 43 iterations

Using DM_out to compute the final energy and forces
No. of atoms with KB's overlaping orbs in proc 0. Max # of overlaps:       6      42

siesta: E_KS(eV) =             -665.6914

siesta: Atomic forces (eV/Ang):
----------------------------------------
   Tot    0.100141    0.000000    0.000000
----------------------------------------
   Max    0.719093
   Res    0.233542    sqrt( Sum f_i^2 / 3N )
----------------------------------------
   Max    0.719093    constrained

Stress tensor Voigt[x,y,z,yz,xz,xy] (kbar):      -86.00        0.63        0.63       -0.03        0.00       -0.00
(Free)E + p*V (eV/cell)     -656.9420
Target enthalpy (eV/cell)     -665.7596

siesta: Stress tensor (static) (eV/Ang**3):
         0.004841    0.000000    0.000000
        -0.000000    0.000444   -0.000019
         0.000000   -0.000019    0.000444

siesta: Pressure (static):         -3.06013313  kBar

siesta: Stress tensor (total) (eV/Ang**3):
        -0.053677    0.000000    0.000000
        -0.000000    0.000392   -0.000021
         0.000000   -0.000021    0.000392

siesta: Pressure (total):         28.24811200  kBar

siesta: Temp_ion =   22967.483 K

                     ====================================
                        Begin MD step =      6
                     ====================================

outcell: Unit cell vectors (Ang):
        7.937655    0.000000    0.000000
        0.000000    7.937655    0.000000
        0.000000    0.000000    7.937655

outcell: Cell vector modules (Ang)   :    7.937655    7.937655    7.937655
outcell: Cell angles (23,13,12) (deg):     90.0000     90.0000     90.0000
outcell: Cell volume (Ang**3)        :    500.1228
<dSpData1D:S at geom step 6
  <sparsity:sparsity for geom step 6
    nrows_g=42 nrows=42 sparsity=1.0000 nnzs=1764, refcount: 7>
  <dData1D:(new from dSpData1D) n=1764, refcount: 1>
refcount: 1>
new_DM -- step:     6
Re-using DM from previous geometries...
Number of DMs in history: 1
 DM extrapolation coefficients: 
1   1.00000
New DM after history re-use:
<dSpData2D:SpM extrapolated using coords
  <sparsity:sparsity for geom step 6
    nrows_g=42 nrows=42 sparsity=1.0000 nnzs=1764, refcount: 9>
  <dData2D:(temp array for extrapolation) n=1764 m=1, refcount: 1>
refcount: 1>
Note: For starting DM, Qtot, Tr[D*S] =         14.00000000         14.02082631
No. of atoms with KB's overlaping orbs in proc 0. Max # of overlaps:       6      42
New grid distribution:   1
           1       1:   36    1:   36    1:   36

InitMesh: MESH =    72 x    72 x    72 =      373248
InitMesh: (bp) =    36 x    36 x    36 =       46656
InitMesh: Mesh cutoff (required, used) =   200.000   227.396 Ry
ExtMesh (bp) on 0 =    84 x    84 x    84 =      592704
PhiOnMesh: Number of (b)points on node 0 =                46656
PhiOnMesh: nlist on node 0 =               219495

        iscf     Eharris(eV)        E_KS(eV)     FreeEng(eV)     dDmax    Ef(eV) dHmax(eV)
   scf:    1     -665.479140     -665.857706     -665.857823  0.450028 -5.436538  1.215599
   scf:    2     -654.403680     -662.172448     -662.228958  2.002459 -4.786011  6.561705
   scf:    3     -665.796189     -665.897775     -665.898325  2.018527 -5.350488  0.561072
   scf:    4     -665.912963     -665.907207     -665.908623  0.007599 -5.301034  0.231567
   scf:    5     -665.907439     -665.909112     -665.923842  0.059127 -5.316483  0.104709
   scf:    6     -665.897176     -665.903861     -665.927095  0.054409 -5.347936  0.092408
   scf:    7     -665.902423     -665.903152     -665.927210  0.005286 -5.347914  0.079441
   scf:    8     -665.868798     -665.889138     -665.924297  0.073475 -5.336036  0.212046
   scf:    9     -665.879900     -665.884649     -665.921812  0.015490 -5.333988  0.268778
   scf:   10     -665.893532     -665.889223     -665.924326  0.015817 -5.336547  0.208633
   scf:   11     -665.908771     -665.900179     -665.928108  0.050595 -5.343373  0.027264
   scf:   12     -665.900586     -665.900383     -665.928125  0.001282 -5.343241  0.024660
   scf:   13     -665.900170     -665.900277     -665.928137  0.001368 -5.343688  0.022751
   scf:   14     -665.901751     -665.901027     -665.928183  0.004534 -5.344416  0.004599
   scf:   15     -665.901173     -665.901100     -665.928184  0.000456 -5.344502  0.002641
   scf:   16     -665.901225     -665.901162     -665.928185  0.000383 -5.344624  0.000880
   scf:   17     -665.901234     -665.901198     -665.928185  0.000227 -5.344666  0.000620

SCF Convergence by DM+H criterion
max |DM_out - DM_in|         :     0.0002266811
max |H_out - H_in|      (eV) :     0.0006202337
SCF cycle converged after 17 iterations

Using DM_out to compute the final energy and forces
No. of atoms with KB's overlaping orbs in proc 0. Max # of overlaps:       6      42

siesta: E_KS(eV) =             -665.9012

siesta: Atomic forces (eV/Ang):
----------------------------------------
   Tot    0.133247    0.000000   -0.000000
----------------------------------------
   Max    1.846399
   Res    0.508643    sqrt( Sum f_i^2 / 3N )
----------------------------------------
   Max    1.846399    constrained

Stress tensor Voigt[x,y,z,yz,xz,xy] (kbar):      -78.66        1.18        1.18       -0.10       -0.00       -0.00
(Free)E + p*V (eV/cell)     -657.9888
Target enthalpy (eV/cell)     -665.9282

siesta: Stress tensor (static) (eV/Ang**3):
         0.009734    0.000000    0.000000
        -0.000000    0.000786   -0.000063
        -0.000000   -0.000063    0.000786

siesta: Pressure (static):         -6.03812342  kBar

siesta: Stress tensor (total) (eV/Ang**3):
        -0.049095    0.000000    0.000000
        -0.000000    0.000735   -0.000065
        -0.000000   -0.000065    0.000735

siesta: Pressure (total):         25.43462289  kBar

siesta: Temp_ion =   23230.802 K

                     ====================================
                        Begin MD step =      7
                     ====================================

outcell: Unit cell vectors (Ang):
        7.937655    0.000000    0.000000
        0.000000    7.937655    0.000000
        0.000000    0.000000    7.937655

outcell: Cell vector modules (Ang)   :    7.937655    7.937655    7.937655
outcell: Cell angles (23,13,12) (deg):     90.0000     90.0000     90.0000
outcell: Cell volume (Ang**3)        :    500.1228
<dSpData1D:S at geom step 7
  <sparsity:sparsity for geom step 7
    nrows_g=42 nrows=42 sparsity=1.0000 nnzs=1764, refcount: 7>
  <dData1D:(new from dSpData1D) n=1764, refcount: 1>
refcount: 1>
new_DM -- step:     7
Re-using DM from previous geometries...
Number of DMs in history: 1
 DM extrapolation coefficients: 
1   1.00000
New DM after history re-use:
<dSpData2D:SpM extrapolated using coords
  <sparsity:sparsity for geom step 7
    nrows_g=42 nrows=42 sparsity=1.0000 nnzs=1764, refcount: 9>
  <dData2D:(temp array for extrapolation) n=1764 m=1, refcount: 1>
refcount: 1>
Note: For starting DM, Qtot, Tr[D*S] =         14.00000000         14.04477033
No. of atoms with KB's overlaping orbs in proc 0. Max # of overlaps:       6      42
New grid distribution:   1
           1       1:   36    1:   36    1:   36

InitMesh: MESH =    72 x    72 x    72 =      373248
InitMesh: (bp) =    36 x    36 x    36 =       46656
InitMesh: Mesh cutoff (required, used) =   200.000   227.396 Ry
ExtMesh (bp) on 0 =    84 x    84 x    84 =      592704
PhiOnMesh: Number of (b)points on node 0 =                46656
PhiOnMesh: nlist on node 0 =               219470

        iscf     Eharris(eV)        E_KS(eV)     FreeEng(eV)     dDmax    Ef(eV) dHmax(eV)
   scf:    1     -665.819677     -666.217584     -666.217586  0.133789 -4.896834  0.586581
   scf:    2     -665.972841     -666.162248     -666.162257  0.059756 -4.763939  1.205393
   scf:    3     -666.266965     -666.246557     -666.246560  0.040626 -4.858956  0.164318
   scf:    4     -666.251479     -666.250202     -666.250206  0.007998 -4.887979  0.064274
   scf:    5     -666.250568     -666.250454     -666.250458  0.001988 -4.894002  0.012367
   scf:    6     -666.250489     -666.250477     -666.250481  0.000922 -4.892841  0.013549
   scf:    7     -666.250481     -666.250480     -666.250484  0.000158 -4.893692  0.007455
   scf:    8     -666.250483     -666.250482     -666.250486  0.000241 -4.894907  0.002575
   scf:    9     -666.250482     -666.250482     -666.250486  0.000246 -4.895876  0.001477
   scf:   10     -666.250482     -666.250482     -666.250487  0.000044 -4.895335  0.000117

SCF Convergence by DM+H criterion
max |DM_out - DM_in|         :     0.0000439638
max |H_out - H_in|      (eV) :     0.0001168243
SCF cycle converged after 10 iterations

Using DM_out to compute the final energy and forces
No. of atoms with KB's overlaping orbs in proc 0. Max # of overlaps:       6      42

siesta: E_KS(eV) =             -666.2505

siesta: Atomic forces (eV/Ang):
----------------------------------------
   Tot   -0.095847    0.000000    0.000000
----------------------------------------
   Max    2.398212
   Res    0.645358    sqrt( Sum f_i^2 / 3N )
----------------------------------------
   Max    2.398212    constrained

Stress tensor Voigt[x,y,z,yz,xz,xy] (kbar):      -78.16        1.79        1.79        0.24        0.00        0.00
(Free)E + p*V (eV/cell)     -658.4910
Target enthalpy (eV/cell)     -666.2505

siesta: Stress tensor (static) (eV/Ang**3):
         0.010746   -0.000000   -0.000000
         0.000000    0.001157    0.000150
         0.000000    0.000150    0.001157

siesta: Pressure (static):         -6.97532313  kBar

siesta: Stress tensor (total) (eV/Ang**3):
        -0.048784   -0.000000   -0.000000
         0.000000    0.001119    0.000147
         0.000000    0.000147    0.001119

siesta: Pressure (total):         24.85825420  kBar

siesta: Temp_ion =   23688.133 K

                     ====================================
                        Begin MD step =      8
                     ====================================

outcell: Unit cell vectors (Ang):
        7.937655    0.000000    0.000000
        0.000000    7.937655    0.000000
        0.000000    0.000000    7.937655

outcell: Cell vector modules (Ang)   :    7.937655    7.937655    7.937655
outcell: Cell angles (23,13,12) (deg):     90.0000     90.0000     90.0000
outcell: Cell volume (Ang**3)        :    500.1228
<dSpData1D:S at geom step 8
  <sparsity:sparsity for geom step 8
    nrows_g=42 nrows=42 sparsity=1.0000 nnzs=1764, refcount: 7>
  <dData1D:(new from dSpData1D) n=1764, refcount: 1>
refcount: 1>
new_DM -- step:     8
Re-using DM from previous geometries...
Number of DMs in history: 1
 DM extrapolation coefficients: 
1   1.00000
New DM after history re-use:
<dSpData2D:SpM extrapolated using coords
  <sparsity:sparsity for geom step 8
    nrows_g=42 nrows=42 sparsity=1.0000 nnzs=1764, refcount: 9>
  <dData2D:(temp array for extrapolation) n=1764 m=1, refcount: 1>
refcount: 1>
Note: For starting DM, Qtot, Tr[D*S] =         14.00000000         14.06020913
No. of atoms with KB's overlaping orbs in proc 0. Max # of overlaps:       6      42
New grid distribution:   1
           1       1:   36    1:   36    1:   36

InitMesh: MESH =    72 x    72 x    72 =      373248
InitMesh: (bp) =    36 x    36 x    36 =       46656
InitMesh: Mesh cutoff (required, used) =   200.000   227.396 Ry
ExtMesh (bp) on 0 =    84 x    84 x    84 =      592704
PhiOnMesh: Number of (b)points on node 0 =                46656
PhiOnMesh: nlist on node 0 =               219648

        iscf     Eharris(eV)        E_KS(eV)     FreeEng(eV)     dDmax    Ef(eV) dHmax(eV)
   scf:    1     -665.685872     -666.496173     -666.496173  0.162184 -4.251697  0.696331
   scf:    2     -666.416898     -666.497995     -666.497995  0.056969 -4.341921  0.712334
   scf:    3     -666.560545     -666.539303     -666.539303  0.027804 -4.385817  0.132718
   scf:    4     -666.540114     -666.539803     -666.539803  0.001839 -4.399333  0.049148
   scf:    5     -666.539829     -666.539816     -666.539816  0.000127 -4.399702  0.046414
   scf:    6     -666.539808     -666.539883     -666.539883  0.002842 -4.405679  0.027608
   scf:    7     -666.539958     -666.539933     -666.539933  0.000922 -4.405748  0.007940
   scf:    8     -666.539935     -666.539935     -666.539935  0.000267 -4.405006  0.001771
   scf:    9     -666.539935     -666.539935     -666.539935  0.000081 -4.405027  0.000134

SCF Convergence by DM+H criterion
max |DM_out - DM_in|         :     0.0000814134
max |H_out - H_in|      (eV) :     0.0001342393
SCF cycle converged after 9 iterations

Using DM_out to compute the final energy and forces
No. of atoms with KB's overlaping orbs in proc 0. Max # of overlaps:       6      42

siesta: E_KS(eV) =             -666.5399

siesta: Atomic forces (eV/Ang):
----------------------------------------
   Tot   -0.128293    0.000000    0.000000
----------------------------------------
   Max    1.566574
   Res    0.475500    sqrt( Sum f_i^2 / 3N )
----------------------------------------
   Max    1.566574    constrained

Stress tensor Voigt[x,y,z,yz,xz,xy] (kbar):      -87.23        2.07        2.07        0.76        0.00        0.00
(Free)E + p*V (eV/cell)     -657.8931
Target enthalpy (eV/cell)     -666.5399

siesta: Stress tensor (static) (eV/Ang**3):
         0.006290    0.000000    0.000000
         0.000000    0.001311    0.000478
         0.000000    0.000478    0.001311

siesta: Pressure (static):         -4.75930308  kBar

siesta: Stress tensor (total) (eV/Ang**3):
        -0.054447    0.000000    0.000000
         0.000000    0.001289    0.000476
         0.000000    0.000476    0.001289

siesta: Pressure (total):         27.70096325  kBar

siesta: Temp_ion =   24139.607 K

                     ====================================
                        Begin MD step =      9
                     ====================================

outcell: Unit cell vectors (Ang):
        7.937655    0.000000    0.000000
        0.000000    7.937655    0.000000
        0.000000    0.000000    7.937655

outcell: Cell vector modules (Ang)   :    7.937655    7.937655    7.937655
outcell: Cell angles (23,13,12) (deg):     90.0000     90.0000     90.0000
outcell: Cell volume (Ang**3)        :    500.1228
<dSpData1D:S at geom step 9
  <sparsity:sparsity for geom step 9
    nrows_g=42 nrows=42 sparsity=1.0000 nnzs=1764, refcount: 7>
  <dData1D:(new from dSpData1D) n=1764, refcount: 1>
refcount: 1>
new_DM -- step:     9
Re-using DM from previous geometries...
Number of DMs in history: 1
 DM extrapolation coefficients: 
1   1.00000
New DM after history re-use:
[...]
(Free)E + p*V (eV/cell)     -656.0358
Target enthalpy (eV/cell)     -664.5411

siesta: Stress tensor (static) (eV/Ang**3):
         0.001786    0.000104    0.000104
         0.000104    0.006833    0.001947
         0.000104    0.001947    0.006833

siesta: Pressure (static):         -8.25204614  kBar

siesta: Stress tensor (total) (eV/Ang**3):
        -0.046557   -0.000231   -0.000231
        -0.000231   -0.002231   -0.007112
        -0.000231   -0.007112   -0.002231

siesta: Pressure (total):         27.24773963  kBar

siesta: Temp_ion =   25125.176 K

                     ====================================
                        Begin MD step =     44
                     ====================================

outcell: Unit cell vectors (Ang):
        7.937655    0.000000    0.000000
        0.000000    7.937655    0.000000
        0.000000    0.000000    7.937655

outcell: Cell vector modules (Ang)   :    7.937655    7.937655    7.937655
outcell: Cell angles (23,13,12) (deg):     90.0000     90.0000     90.0000
outcell: Cell volume (Ang**3)        :    500.1228
Gamma-point calculation with multiply-connected orbital pairs
Gamma-point calculation with multiply-connected orbital pairs
Folding of H and S implicitly performed
Folding of H and S implicitly performed
<dSpData1D:S at geom step 44
  <sparsity:sparsity for geom step 44
    nrows_g=42 nrows=42 sparsity=1.0000 nnzs=1764, refcount: 7>
  <dData1D:(new from dSpData1D) n=1764, refcount: 1>
refcount: 1>
new_DM -- step:    44
Re-using DM from previous geometries...
Number of DMs in history: 1
 DM extrapolation coefficients: 
1   1.00000
New DM after history re-use:
<dSpData2D:SpM extrapolated using coords
  <sparsity:sparsity for geom step 44
    nrows_g=42 nrows=42 sparsity=1.0000 nnzs=1764, refcount: 9>
  <dData2D:(temp array for extrapolation) n=1764 m=1, refcount: 1>
refcount: 1>
Note: For starting DM, Qtot, Tr[D*S] =         14.00000000         14.04828964
No. of atoms with KB's overlaping orbs in proc 0. Max # of overlaps:       6      42
New grid distribution:   1
           1       1:   36    1:   36    1:   36

InitMesh: MESH =    72 x    72 x    72 =      373248
InitMesh: (bp) =    36 x    36 x    36 =       46656
InitMesh: Mesh cutoff (required, used) =   200.000   227.396 Ry
ExtMesh (bp) on 0 =    84 x    84 x    84 =      592704
PhiOnMesh: Number of (b)points on node 0 =                46656
PhiOnMesh: nlist on node 0 =               219336

        iscf     Eharris(eV)        E_KS(eV)     FreeEng(eV)     dDmax    Ef(eV) dHmax(eV)
   scf:    1     -568.061863     -633.372985     -633.372985  1.082274 -4.919785 27.540070
   scf:    2     -405.858582     -588.478307     -588.478307  1.988040 -9.575472 65.181543
   scf:    3     -650.138022     -622.309213     -622.309213  0.731110 -4.019252 31.688722
   scf:    4     -620.807800     -621.561235     -621.561235  0.023115 -4.151744 32.586544
   scf:    5     -614.445209     -618.062322     -618.062322  0.108237 -3.980770 36.824401
   scf:    6     -536.302310     -636.540263     -636.540263  1.992655 -6.656983 21.931508
   scf:    7     -638.344932     -637.456338     -637.456338  0.077112 -5.692797 20.362152
   scf:    8     -629.047665     -633.398599     -633.398599  0.252379 -3.991421 27.386104
   scf:    9     -277.580226     -477.499468     -477.499468  0.491250 -0.250857 68.100967
   scf:   10     -701.802971     -662.959223     -662.960528  1.274817 -3.067254  4.691122
   scf:   11     -565.672197     -624.624957     -624.624957  1.152103 -2.757861 27.583621
   scf:   12     -626.546152     -625.591664     -625.591664  0.034963 -3.192647 26.343319
   scf:   13     -673.941161     -663.456778     -663.456778  0.958991 -4.211370  2.394227
   scf:   14     -575.691982     -634.670683     -634.670787  1.052796 -4.898658 25.681661
   scf:   15     -529.215662     -628.891433     -628.895191  1.962028 -3.096707 22.856197
   scf:   16     -673.980864     -663.238632     -663.238632  0.957353 -3.728464  4.881162
   scf:   17     -663.261877     -663.250412     -663.250412  0.005033 -3.790054  4.760023
   scf:   18     -663.492722     -663.382672     -663.382672  0.033093 -4.135970  3.354796
   scf:   19     -663.330103     -663.358036     -663.358036  0.015448 -3.894647  3.762831
   scf:   20     -663.354808     -663.356533     -663.356533  0.004828 -3.938416  3.726930
   scf:   21     -562.011264     -630.222110     -630.222110  1.056101 -3.728705 32.034594
   scf:   22     -519.190909     -625.925836     -625.925836  1.988735 -3.253886 25.588999
   scf:   23     -673.585271     -663.419713     -663.419713  0.953821 -4.337618  2.430791
   scf:   24     -663.373365     -663.399242     -663.399242  0.024360 -3.976972  3.252113
   scf:   25     -663.338061     -663.369356     -663.369356  0.010868 -3.869000  3.662954
   scf:   26     -663.450371     -663.412133     -663.412133  0.020641 -4.163379  2.857791
   scf:   27     -663.289279     -663.354591     -663.354591  0.026742 -3.751415  3.902475
   scf:   28     -564.547308     -631.142506     -631.142506  1.055272 -4.241233 30.927712
   scf:   29     -521.127996     -626.502512     -626.502512  1.986405 -3.249380 24.921988
   scf:   30     -674.043667     -663.382325     -663.382325  0.952168 -3.927708  3.475282
   scf:   31     -663.384563     -663.383446     -663.383446  0.000573 -3.932644  3.464199
   scf:   32     -663.464471     -663.430280     -663.430280  0.040915 -4.430216  2.088659
   scf:   33     -663.453769     -663.442218     -663.442218  0.004440 -4.440469  1.918982
   scf:   34     -663.402654     -663.423083     -663.423083  0.006529 -4.384926  2.299389
   scf:   35     -563.376229     -630.370889     -630.370889  1.049608 -3.376641 32.123230
   scf:   36     -520.867021     -626.614551     -626.614551  1.987084 -3.289433 24.855152
   scf:   37     -673.407976     -663.436158     -663.436158  0.952933 -4.400903  2.154498
   scf:   38     -663.447133     -663.443428     -663.443428  0.022088 -4.678394  1.430406
   scf:   39     -663.423177     -663.435165     -663.435165  0.022907 -4.389500  2.178075
   scf:   40     -663.463099     -663.450181     -663.450181  0.015825 -4.587750  1.606628
   scf:   41     -663.447248     -663.448730     -663.448730  0.001470 -4.587154  1.642612
   scf:   42     -566.198407     -631.225433     -631.225433  1.044326 -3.508027 31.309751
   scf:   43     -520.617690     -626.096060     -626.096060  1.988809 -3.123041 25.560724
   scf:   44     -673.981838     -663.416654     -663.416654  0.950033 -4.033203  2.979561
   scf:   45     -663.350939     -663.385199     -663.385199  0.019176 -3.767052  3.623052
   scf:   46     -663.500754     -663.446595     -663.446595  0.032338 -4.164956  2.512237
   scf:   47     -663.426204     -663.436600     -663.436600  0.007209 -4.072712  2.764117
   scf:   48     -663.449007     -663.442913     -663.442913  0.003503 -4.122828  2.594026
   scf:   49     -567.164856     -631.783592     -631.783592  1.047011 -3.943087 30.628768
   scf:   50     -520.928713     -626.056971     -626.056971  1.987990 -3.115092 25.561713
   scf:   51     -673.518050     -663.465725     -663.465725  0.950228 -4.403516  1.856355
   scf:   52     -663.476514     -663.471166     -663.471166  0.003413 -4.438775  1.733490
   scf:   53     -663.463748     -663.467469     -663.467469  0.000930 -4.433883  1.773241
   scf:   54     -663.468811     -663.468144     -663.468144  0.000941 -4.435632  1.764637
   scf:   55     -663.466818     -663.467484     -663.467484  0.000542 -4.427039  1.793425
   scf:   56     -568.381861     -632.044565     -632.044565  1.045079 -4.140687 30.309610
   scf:   57     -521.420197     -626.181045     -626.181045  1.987426 -3.293291 25.434179
   scf:   58     -673.309910     -663.473625     -663.473625  0.950609 -4.548081  1.472224
   scf:   59     -663.457758     -663.472103     -663.473450  0.043274 -4.764557  1.932542
   scf:   60     -663.472846     -663.473388     -663.478460  0.007647 -4.751780  2.067829
   scf:   61     -663.490895     -663.483985     -663.484109  0.009907 -4.758102  1.736416
   scf:   62     -663.478698     -663.481498     -663.481505  0.005264 -4.774250  1.625539
   scf:   63     -663.448221     -663.465420     -663.465420  0.006331 -4.812876  1.535658
   scf:   64     -565.609173     -625.697509     -625.697509  0.951447 -3.367535 26.102701
   scf:   65     -535.340356     -635.319528     -635.319529  1.983528 -4.710049 25.094562
   scf:   66     -662.684736     -663.490447     -663.490447  1.039237 -4.552140  1.376732
   scf:   67     -663.489970     -663.490209     -663.490209  0.000135 -4.553708  1.376474
   scf:   68     -663.474247     -663.482527     -663.482527  0.007644 -4.432298  1.676554
   scf:   69     -663.485343     -663.483945     -663.483945  0.001595 -4.454414  1.618893
   scf:   70     -663.483469     -663.483767     -663.483767  0.004680 -4.415915  1.740218
   scf:   71     -568.822731     -626.992057     -626.992058  0.954989 -3.307501 24.355200
   scf:   72     -525.142962     -632.311525     -632.311525  1.983755 -4.548493 29.902045
   scf:   73     -662.499954     -663.481870     -663.481870  1.044384 -4.383222  1.824376
   scf:   74     -663.492923     -663.487504     -663.487504  0.005475 -4.460570  1.631913
   scf:   75     -663.514721     -663.504944     -663.504948  0.031681 -4.784082  1.356635
   scf:   76     -663.478142     -663.493301     -663.493301  0.020858 -4.608165  1.270816
   scf:   77     -663.449136     -663.472249     -663.472249  0.015489 -4.374807  1.865626
   scf:   78     -552.206312     -620.008351     -620.008351  0.953581 -4.662291 34.245865
   scf:   79     -528.246478     -634.228899     -634.228899  1.988342 -4.239692 27.050415
   scf:   80     -670.856958     -656.206982     -656.276267  0.509494 -4.746534 12.806978
   scf:   81     -611.596552     -636.905654     -636.917237  0.480746 -4.740626 24.122091
   scf:   82     -662.924934     -663.515238     -663.515238  1.012345 -4.716509  0.954999
   scf:   83     -663.300517     -663.421430     -663.421431  0.056252 -3.850382  3.074618
   scf:   84     -663.582955     -663.512000     -663.512000  0.046670 -4.579564  1.233293
   scf:   85     -546.105020     -617.810439     -617.810439  0.951646 -6.190271 37.008556
   scf:   86     -672.997871     -663.504227     -663.515425  0.975714 -4.756203  1.893081
   scf:   87     -663.478430     -663.492216     -663.506211  0.008162 -4.755825  2.007673
   scf:   88     -577.393903     -634.214625     -634.214625  1.006924 -4.243522 27.061807
   scf:   89     -637.426251     -635.841031     -635.844742  0.066408 -4.743046 24.634727
   scf:   90     -662.256410     -663.478213     -663.478213  1.031969 -4.307930  1.953399
   scf:   91     -663.445136     -663.462368     -663.462368  0.013146 -4.109373  2.421603
   scf:   92     -548.441662     -618.413829     -618.413829  0.949835 -5.818738 36.337310
   scf:   93     -675.663964     -663.446606     -663.446606  0.948788 -4.063273  2.573366
   scf:   94     -663.198035     -663.329802     -663.329802  0.041103 -3.410642  4.205877
   scf:   95     -663.336641     -663.333227     -663.333227  0.000660 -3.419579  4.180328
   scf:   96     -573.304433     -634.217389     -634.217389  1.041856 -4.194785 27.082853
   scf:   97     -661.619112     -663.431171     -663.431171  1.043052 -3.975460  2.816645
   scf:   98     -663.381342     -663.406708     -663.406708  0.010010 -3.812202  3.211317
   scf:   99     -547.758265     -617.980031     -617.980031  0.948471 -6.197393 37.009737
   scf:  100     -676.249156     -663.377126     -663.377126  0.950344 -3.649304  3.637896
   scf:  101     -663.295995     -663.337221     -663.337221  0.011262 -3.477914  4.120613
   scf:  102     -663.294215     -663.315908     -663.315908  0.006530 -3.371631  4.377903
   scf:  103     -573.127592     -634.186689     -634.186689  1.044615 -4.179211 27.112730
   scf:  104     -660.471584     -663.313755     -663.313755  1.046600 -3.380765  4.367084
   scf:  105     -663.480648     -663.400274     -663.400274  0.024501 -3.790365  3.330723
   scf:  106     -559.998260     -622.686721     -622.686721  0.949203 -2.590299 30.371649
   scf:  107     -674.692511     -663.446293     -663.446294  0.951058 -4.026556  2.694093
   scf:  108     -663.425159     -663.435805     -663.435805  0.003631 -3.969438  2.856819
   scf:  109     -663.349197     -663.393551     -663.393551  0.015348 -3.717586  3.464620
   scf:  110     -573.891859     -634.300147     -634.300147  1.043767 -4.445719 26.871960
   scf:  111     -660.355018     -663.311902     -663.311902  1.042309 -3.318739  4.489499
   scf:  112     -663.381820     -663.347468     -663.347468  0.013424 -3.492241  4.026427
   scf:  113     -552.449154     -619.577570     -619.577570  0.950344 -5.019922 34.882466
   scf:  114     -675.193278     -663.479533     -663.479533  0.950520 -4.279423  2.065280
   scf:  115     -663.539976     -663.512154     -663.512154  0.023539 -4.633536  1.158786
   scf:  116     -663.503701     -663.507997     -663.507997  0.003696 -4.581075  1.309710
   scf:  117     -575.094098     -634.313971     -634.313971  1.040802 -4.369607 26.881109
   scf:  118     -661.132648     -663.396322     -663.396322  1.041161 -3.701246  3.508717
   scf:  119     -663.471859     -663.435012     -663.435012  0.014357 -3.930150  2.937059
   scf:  120     -545.682358     -617.238102     -617.238102  0.948028 -6.733320 37.998665
   scf:  121     -675.866552     -663.468242     -663.468242  0.950247 -4.219330  2.258417
   scf:  122     -663.451261     -663.459843     -663.459843  0.004842 -4.142439  2.435900
   scf:  123     -663.475334     -663.467650     -663.467650  0.003950 -4.203056  2.289000
   scf:  124     -574.645088     -634.337253     -634.337253  1.041064 -4.375786 26.829232
   scf:  125     -661.963017     -663.463021     -663.463021  1.041488 -4.192370  2.345566
   scf:  126     -663.271119     -663.372523     -663.372523  0.034300 -3.644508  3.730778
   scf:  127     -542.394383     -615.812697     -615.812697  0.949315 -7.758444 39.841703
   scf:  128     -676.777916     -663.400688     -663.400688  0.949316 -3.783758  3.362426
   scf:  129     -663.434098     -663.417599     -663.417599  0.006691 -3.908052  3.101888
   scf:  130     -663.472270     -663.445514     -663.445514  0.011546 -4.092914  2.650832
   scf:  131     -574.722840     -634.425283     -634.425283  1.041332 -4.451080 26.670240
   scf:  132     -661.470176     -663.422450     -663.422450  1.040788 -3.933881  3.053479
   scf:  133     -663.304511     -663.365272     -663.365272  0.020010 -3.616299  3.852839
   scf:  134     -547.938510     -617.895810     -617.895810  0.947828 -6.293331 37.169258
   scf:  135     -676.312082     -663.383017     -663.383017  0.948169 -3.688416  3.654338
   scf:  136     -663.395063     -663.389055     -663.389055  0.000817 -3.710466  3.600361
   scf:  137     -663.386209     -663.387634     -663.387634  0.000790 -3.700152  3.623474
   scf:  138     -574.006149     -634.355921     -634.355921  1.041349 -4.410028 26.786199
   scf:  139     -660.758365     -663.356102     -663.356102  1.041740 -3.544771  4.031611
   scf:  140     -663.310765     -663.333636     -663.333636  0.006815 -3.444224  4.304375
   scf:  141     -557.749077     -621.564548     -621.564548  0.947725 -3.639269 32.170630
   scf:  142     -553.660874     -640.385423     -640.415752  1.891689 -4.734553 22.480893
   scf:  143     -663.390723     -663.513933     -663.514582  0.942067 -4.760942  1.499775
   scf:  144     -663.506690     -663.511619     -663.511619  0.017607 -4.783057  1.079007
   scf:  145     -663.470362     -663.491947     -663.491947  0.013046 -4.548725  1.330243
   scf:  146     -663.368861     -663.436287     -663.436287  0.038837 -3.998792  2.773833
   scf:  147     -663.543384     -663.502020     -663.502020  0.056759 -4.755172  1.253133
   scf:  148     -551.852823     -620.139622     -620.139622  0.949196 -4.664859 34.100965
   scf:  149     -527.354043     -633.985903     -633.985903  1.988662 -4.018031 27.444400
   scf:  150     -661.354143     -663.412629     -663.412629  1.041341 -3.838302  3.234271
SCF_NOT_CONV: SCF did not converge in maximum number of steps (required).
SCF_NOT_CONV: SCF did not converge in maximum number of steps (required).
Geom step, scf iteration, dmax:   44   150    0.237713
Geom step, scf iteration, dmax:   44   150    0.237713

timer: Elapsed wall time (sec) =    3863.019
timer: CPU execution times (sec):

Routine            Calls   Time/call    Tot.time        %
siesta                 1    5812.493    5812.493   100.00
Setup                  1       1.797       1.797     0.03
bands                  1       0.000       0.000     0.00
KSV_init               1       0.000       0.000     0.00
IterGeom              44     132.061    5810.691    99.97
state_init            44       0.132       5.796     0.10
hsparse               44       0.002       0.070     0.00
overlap               44       0.127       5.599     0.10
Setup_H0              44       3.643     160.283     2.76
naefs                 87       0.000       0.032     0.00
MolMec                87       0.000       0.001     0.00
kinefsm               87       0.067       5.818     0.10
nlefsm                87       0.477      41.503     0.71
DHSCF_Init            44       2.595     114.186     1.96
DHSCF1                44       0.126       5.538     0.10
INITMESH              44       0.000       0.002     0.00
DHSCF2                44       2.469     108.646     1.87
REMESH                44       0.288      12.694     0.22
REORD               4020       0.004      14.852     0.26
PHION                 44       1.449      63.762     1.10
COMM_BSC            6874       0.003      19.528     0.34
POISON              1730       0.502     868.665    14.94
fft                 3460       0.228     790.053    13.59
IterSCF             1599       3.424    5475.063    94.19
setup_H             1643       3.282    5392.701    92.78
DHSCF               1686       3.292    5550.304    95.49
DHSCF3              1686       3.245    5471.779    94.14
rhoofd              1686       1.159    1954.910    33.63
XC                  1686       1.273    2145.474    36.91
GXC-CellXC          1686       1.261    2125.493    36.57
cellXC              1686       1.261    2125.322    36.56
vmat                1686       0.117     198.051     3.41
compute_dm          1599       0.050      79.182     1.36
diagon              1599       0.049      78.226     1.35
r-eigvec            1599       0.039      62.606     1.08
r-buildHS           1599       0.000       0.142     0.00
rdiag               1599       0.039      62.278     1.07
rdiag1              1599       0.000       0.168     0.00
rdiag2              1599       0.000       0.521     0.01
rdiag3              1599       0.026      42.104     0.72
rdiag4              1599       0.012      18.952     0.33
r-buildD            1599       0.008      13.049     0.22
MIXER               1556       0.000       0.724     0.01
PostSCF               43       3.935     169.222     2.91
DHSCF4                43       1.823      78.386     1.35
dfscf                 43       1.563      67.227     1.16
overfsm               43       0.005       0.232     0.00
state_analysis        43       0.002       0.072     0.00
siesta_move           43       0.004       0.176     0.00
  
ABNORMAL_TERMINATION
Stopping Program from Node:    0
ABNORMAL_TERMINATION
Stopping Program from Node:    0
--------------------------------------------------------------------------
MPI_ABORT was invoked on rank 0 in communicator MPI COMMUNICATOR 3 CREATE FROM 0
with errorcode 1.

NOTE: invoking MPI_ABORT causes Open MPI to kill all MPI processes.
You may or may not see output from other processes, depending on
exactly when Open MPI kills them.
--------------------------------------------------------------------------
