Siesta Version  : 4.1.5
Architecture    : unknown
Compiler version: GNU Fortran (GCC) 9.4.0
Compiler flags  : mpifort -march=nocona -mtune=haswell -ftree-vectorize -fPIC -fstack-protectorr-strong -fno-plt -O2 -ffunction-sections -pipe
PP flags        : -DFC_HAVE_ABORT -DCDF -DMPI -DSIESTA__MRRR -DNCDF -DNCDF_4
Libraries       : libncdf.a libfdict.a -lscalapack -llapack -lblas -lnetcdff -lnetcdf -lhdf5_hll -lhdf5 -lz
PARALLEL version
NetCDF support
NetCDF-4 support

* Running in serial mode with MPI
>> Start of run:  13-JUN-2023  17:34:43

                           ***********************       
                           *  WELCOME TO SIESTA  *       
                           ***********************       

reinit: Reading from standard input
reinit: Dumped input in INPUT_TMP.58825
************************** Dump of input data file ****************************
SystemName CH4+O reaction             # Descriptive name of the system
SystemLabel            CH4            # Short name for naming files
# Species and atoms
NumberOfSpecies       3
NumberOfAtoms         6
%block ChemicalSpeciesLabel
  1   8   O
  2   6   C
  3   1   H
%endblock ChemicalSpeciesLabel
# Basis
%block PAO.BasisSizes
    C DZP
    O DZP
    H SZP
%endblock PAO.BasisSizes
LatticeConstant       1.0000 Ang
%block LatticeVectors
15.00000   0.000000  0.000000
 0.00000  15.000000  0.000000
 0.00000   0.000000 15.000000
%endblock LatticeVectors
%block kgrid_Monkhorst_Pack
   1  0  0  0.
   0  1  0  0.
   0  0  1  0.
%endblock Kgrid_Monkhorst_Pack
xc.functional         GGA           # Exchange-correlation functional
xc.authors            PBE           # Exchange-correlation version
#SpinPolarized         true          # Logical parameters are: yes or no
MeshCutoff           200. Ry        # Mesh cutoff. real space mesh
# SCF options
#SCFMustConvergence     true
MaxSCFIterations       150          # Maximum number of SCF iter
DM.MixingWeight       0.02          # New DM amount for next SCF cycle
DM.Tolerance          3.d-4         # Tolerance in maximum difference
                                    # between input and output DM
DM.NumberPulay          6           # to use continuation files
#DM.NumberBroyden       3
#DM.AllowExtrapolation  false
MD.UseSaveData           true
Diag.DivideAndConquer 	true
SolutionMethod        diagon        # OrderN or Diagon
ElectronicTemperature  25 meV       # Temp. for Fermi smearing
# -----------------------------
#  MD options
#  options for a basic MD run
# -----------------------------
# Options to Integrate Equations of motion
MD.TypeOfRun         verlet         # Standard Verlet algrithm
                                    # for Molecular Dynamics
MD.LengthTimeStep         1.0 fs    # time step integration
                                    # Newton eqs of motion
MD.Initial.Time.Step     1          #initial time step of MD
MD.FinalTimeStep         100        #Final time step of MD
# Initial Atomic coordinates and Velocity for MD run
MD.InitialTemperature     0 K       #Assign initial random velocity from
                                    # a Maxwell-Boltzmann distribution
                                    # for a given temperature
MD.UseSaveXV 		true            # use atomic Positions
                                    # and Velocities from
                                    # a saved XV file
AtomicCoordinatesFormat Ang         #Use Angstroms for atomic coordinates
%block AtomicCoordinatesAndAtomicSpecies
        0.000000  0.000000  0.000000 2 ! C 1
        0.627600  0.627600  0.627600 3 ! H 2
        0.627600 -0.627600 -0.627600 3 ! H 3
       -0.627600  0.627600 -0.627600 3 ! H 4
       -0.627600 -0.627600  0.627600 3 ! H 5
        5.000000  0.000000  0.000000 1 ! O 6
%endblock AtomicCoordinatesAndAtomicSpecies
#MD Output
WriteCoorXmol          true         #Save the final coordinates in .xyz format
WriteMDXmol            true         #Writes the coordinates
                                    #of all atoms at all steps
                                    #in a .ANI file
                                    #in xyz format
WriteMDhistory         true         #writes .MDE and .MD files
                                    # with output data from MD simulation
                                    # MDE contains: Temp, energy, volume, pressure
                                    # (human readable)
                                    # MD contains coords vel lattice vectors
                                    # (unformatted; post-process with iomd.f)
************************** End of input data file *****************************

reinit: -----------------------------------------------------------------------
reinit: System Name: CH4+O reaction
reinit: -----------------------------------------------------------------------
reinit: System Label: CH4
reinit: -----------------------------------------------------------------------

initatom: Reading input for the pseudopotentials and atomic orbitals ----------
Species number:   1 Atomic number:    8 Label: O
Species number:   2 Atomic number:    6 Label: C
Species number:   3 Atomic number:    1 Label: H

Ground state valence configuration:   2s02  2p04
Reading pseudopotential information in formatted form from O.psf

Valence configuration for pseudopotential generation:
2s( 2.00) rc: 1.47
2p( 4.00) rc: 1.47
3d( 0.00) rc: 1.47
4f( 0.00) rc: 1.47
Ground state valence configuration:   2s02  2p02
Reading pseudopotential information in formatted form from C.psf

Valence configuration for pseudopotential generation:
2s( 2.00) rc: 1.54
2p( 2.00) rc: 1.54
3d( 0.00) rc: 1.54
4f( 0.00) rc: 1.54
Ground state valence configuration:   1s01
Reading pseudopotential information in formatted form from H.psf

Valence configuration for pseudopotential generation:
1s( 1.00) rc: 1.31
2p( 0.00) rc: 1.31
3d( 0.00) rc: 0.37
4f( 0.00) rc: 1.31
resizes: Read basis size for species C = dzp                 
resizes: Read basis size for species O = dzp                 
resizes: Read basis size for species H = szp                 
For O, standard SIESTA heuristics set lmxkb to 3
 (one more than the basis l, including polarization orbitals).
Use PS.lmax or PS.KBprojectors blocks to override.
For C, standard SIESTA heuristics set lmxkb to 3
 (one more than the basis l, including polarization orbitals).
Use PS.lmax or PS.KBprojectors blocks to override.
For H, standard SIESTA heuristics set lmxkb to 2
 (one more than the basis l, including polarization orbitals).
Use PS.lmax or PS.KBprojectors blocks to override.

<basis_specs>
===============================================================================
O                    Z=   8    Mass=  16.000        Charge= 0.17977+309
Lmxo=1 Lmxkb= 3    BasisType=split      Semic=F
L=0  Nsemic=0  Cnfigmx=2
          i=1  nzeta=2  polorb=0  (2s)
            splnorm:   0.15000    
               vcte:    0.0000    
               rinn:    0.0000    
               qcoe:    0.0000    
               qyuk:    0.0000    
               qwid:   0.10000E-01
                rcs:    0.0000      0.0000    
            lambdas:    1.0000      1.0000    
L=1  Nsemic=0  Cnfigmx=2
          i=1  nzeta=2  polorb=1  (2p)
            splnorm:   0.15000    
               vcte:    0.0000    
               rinn:    0.0000    
               qcoe:    0.0000    
               qyuk:    0.0000    
               qwid:   0.10000E-01
                rcs:    0.0000      0.0000    
            lambdas:    1.0000      1.0000    
-------------------------------------------------------------------------------
L=0  Nkbl=1  erefs: 0.17977+309
L=1  Nkbl=1  erefs: 0.17977+309
L=2  Nkbl=1  erefs: 0.17977+309
L=3  Nkbl=1  erefs: 0.17977+309
===============================================================================
</basis_specs>

atom: Called for O                     (Z =   8)

read_vps: Pseudopotential generation method:
read_vps: ATM3      Troullier-Martins                       
Valence charge for ps generation:    6.00000

read_vps: Pseudopotential includes a core correction:
read_vps: Pseudo-core for xc-correction

xc_check: Exchange-correlation functional:
xc_check: GGA Perdew, Burke & Ernzerhof 1996
V l=0 = -2*Zval/r beyond r=  1.4482
V l=1 = -2*Zval/r beyond r=  1.4482
V l=2 = -2*Zval/r beyond r=  1.4482
V l=3 = -2*Zval/r beyond r=  1.4482
All V_l potentials equal beyond r=  1.4482
This should be close to max(r_c) in ps generation
All pots = -2*Zval/r beyond r=  1.4482

VLOCAL1: 99.0% of the norm of Vloc inside     20.696 Ry
VLOCAL1: 99.9% of the norm of Vloc inside     47.167 Ry
atom: Maximum radius for 4*pi*r*r*local-pseudopot. charge    1.74697
atom: Maximum radius for r*vlocal+2*Zval:    1.52250
GHOST: No ghost state for L =  0
GHOST: No ghost state for L =  1
GHOST: No ghost state for L =  2
GHOST: No ghost state for L =  3

KBgen: Kleinman-Bylander projectors: 
   l= 0   rc=  1.620715   el= -1.757696   Ekb=  4.880948   kbcos=  0.293490
   l= 1   rc=  1.600578   el= -0.664256   Ekb= -6.909822   kbcos= -0.499892
   l= 2   rc=  1.703827   el=  0.002031   Ekb= -1.539219   kbcos= -0.006778
   l= 3   rc=  1.746967   el=  0.003153   Ekb= -0.568983   kbcos= -0.000967

KBgen: Total number of Kleinman-Bylander projectors:   16
atom: -------------------------------------------------------------------------

atom: SANKEY-TYPE ORBITALS:
atom: Selected multiple-zeta basis: split     

SPLIT: Orbitals with angular momentum L= 0

SPLIT: Basis orbitals for state 2s

SPLIT: PAO cut-off radius determined from an
SPLIT: energy shift=  0.020000 Ry

   izeta = 1
                 lambda =    1.000000
                     rc =    3.305093
                 energy =   -1.740009
                kinetic =    1.602198
    potential(screened) =   -3.342207
       potential(ionic) =  -11.287121

   izeta = 2
                 rmatch =    2.510382
              splitnorm =    0.150000
                 energy =   -1.483129
                kinetic =    2.419988
    potential(screened) =   -3.903117
       potential(ionic) =  -12.432204

SPLIT: Orbitals with angular momentum L= 1

SPLIT: Basis orbitals for state 2p

SPLIT: PAO cut-off radius determined from an
SPLIT: energy shift=  0.020000 Ry

   izeta = 1
                 lambda =    1.000000
                     rc =    3.937239
                 energy =   -0.646301
                kinetic =    4.684247
    potential(screened) =   -5.330548
       potential(ionic) =  -13.029785

   izeta = 2
                 rmatch =    2.541963
              splitnorm =    0.150000
                 energy =   -0.369342
                kinetic =    6.896892
    potential(screened) =   -7.266234
       potential(ionic) =  -15.802088

POLgen: Perturbative polarization orbital with L=  2

POLgen: Polarization orbital for state 2p

   izeta = 1
                     rc =    3.937239
                 energy =    2.419602
                kinetic =    4.834162
    potential(screened) =   -2.414561
       potential(ionic) =   -8.756379
atom: Total number of Sankey-type orbitals: 13

atm_pop: Valence configuration (for local Pseudopot. screening):
 2s( 2.00)                                                            
 2p( 4.00)                                                            
Vna: chval, zval:    6.00000   6.00000

Vna:  Cut-off radius for the neutral-atom potential:   3.937239
comcore: Pseudo-core radius Rcore=  1.377587

atom: _________________________________________________________________________

<basis_specs>
===============================================================================
C                    Z=   6    Mass=  12.010        Charge= 0.17977+309
Lmxo=1 Lmxkb= 3    BasisType=split      Semic=F
L=0  Nsemic=0  Cnfigmx=2
          i=1  nzeta=2  polorb=0  (2s)
            splnorm:   0.15000    
               vcte:    0.0000    
               rinn:    0.0000    
               qcoe:    0.0000    
               qyuk:    0.0000    
               qwid:   0.10000E-01
                rcs:    0.0000      0.0000    
            lambdas:    1.0000      1.0000    
L=1  Nsemic=0  Cnfigmx=2
          i=1  nzeta=2  polorb=1  (2p)
            splnorm:   0.15000    
               vcte:    0.0000    
               rinn:    0.0000    
               qcoe:    0.0000    
               qyuk:    0.0000    
               qwid:   0.10000E-01
                rcs:    0.0000      0.0000    
            lambdas:    1.0000      1.0000    
-------------------------------------------------------------------------------
L=0  Nkbl=1  erefs: 0.17977+309
L=1  Nkbl=1  erefs: 0.17977+309
L=2  Nkbl=1  erefs: 0.17977+309
L=3  Nkbl=1  erefs: 0.17977+309
===============================================================================
</basis_specs>

atom: Called for C                     (Z =   6)

read_vps: Pseudopotential generation method:
read_vps: ATM3      Troullier-Martins                       
Valence charge for ps generation:    4.00000

read_vps: Pseudopotential includes a core correction:
read_vps: Pseudo-core for xc-correction

xc_check: Exchange-correlation functional:
xc_check: GGA Perdew, Burke & Ernzerhof 1996
V l=0 = -2*Zval/r beyond r=  1.5227
V l=1 = -2*Zval/r beyond r=  1.5227
V l=2 = -2*Zval/r beyond r=  1.5227
V l=3 = -2*Zval/r beyond r=  1.5038
All V_l potentials equal beyond r=  1.5227
This should be close to max(r_c) in ps generation
All pots = -2*Zval/r beyond r=  1.5227

VLOCAL1: 99.0% of the norm of Vloc inside     18.722 Ry
VLOCAL1: 99.9% of the norm of Vloc inside     42.668 Ry
atom: Maximum radius for 4*pi*r*r*local-pseudopot. charge    1.83678
atom: Maximum radius for r*vlocal+2*Zval:    1.58088
GHOST: No ghost state for L =  0
GHOST: No ghost state for L =  1
GHOST: No ghost state for L =  2
GHOST: No ghost state for L =  3

KBgen: Kleinman-Bylander projectors: 
   l= 0   rc=  1.704034   el= -1.009801   Ekb=  5.335044   kbcos=  0.316824
   l= 1   rc=  1.704034   el= -0.388707   Ekb= -3.785862   kbcos= -0.366464
   l= 2   rc=  1.791422   el=  0.001971   Ekb= -0.970471   kbcos= -0.009212
   l= 3   rc=  1.859892   el=  0.003065   Ekb= -0.399525   kbcos= -0.001223

KBgen: Total number of Kleinman-Bylander projectors:   16
atom: -------------------------------------------------------------------------

atom: SANKEY-TYPE ORBITALS:
atom: Selected multiple-zeta basis: split     

SPLIT: Orbitals with angular momentum L= 0

SPLIT: Basis orbitals for state 2s

SPLIT: PAO cut-off radius determined from an
SPLIT: energy shift=  0.020000 Ry

   izeta = 1
                 lambda =    1.000000
                     rc =    4.088342
                 energy =   -0.989105
                kinetic =    0.904439
    potential(screened) =   -1.893544
       potential(ionic) =   -5.484581

   izeta = 2
                 rmatch =    3.347176
              splitnorm =    0.150000
                 energy =   -0.835603
                kinetic =    1.364067
    potential(screened) =   -2.199670
       potential(ionic) =   -6.017020

SPLIT: Orbitals with angular momentum L= 1

SPLIT: Basis orbitals for state 2p

SPLIT: PAO cut-off radius determined from an
SPLIT: energy shift=  0.020000 Ry

   izeta = 1
                 lambda =    1.000000
                     rc =    4.870301
                 energy =   -0.368906
                kinetic =    2.520369
    potential(screened) =   -2.889275
       potential(ionic) =   -6.370528

   izeta = 2
                 rmatch =    3.475094
              splitnorm =    0.150000
                 energy =   -0.205913
                kinetic =    3.767535
    potential(screened) =   -3.973448
       potential(ionic) =   -7.809680

POLgen: Perturbative polarization orbital with L=  2

POLgen: Polarization orbital for state 2p

   izeta = 1
                     rc =    4.870301
                 energy =    1.296434
                kinetic =    2.645086
    potential(screened) =   -1.348652
       potential(ionic) =   -4.303965
atom: Total number of Sankey-type orbitals: 13

atm_pop: Valence configuration (for local Pseudopot. screening):
 2s( 2.00)                                                            
 2p( 2.00)                                                            
Vna: chval, zval:    4.00000   4.00000

Vna:  Cut-off radius for the neutral-atom potential:   4.870301
comcore: Pseudo-core radius Rcore=  1.791422

atom: _________________________________________________________________________

<basis_specs>
===============================================================================
H                    Z=   1    Mass=  1.0100        Charge= 0.17977+309
Lmxo=0 Lmxkb= 2    BasisType=split      Semic=F
L=0  Nsemic=0  Cnfigmx=1
          i=1  nzeta=1  polorb=1  (1s)
            splnorm:   0.15000    
               vcte:    0.0000    
               rinn:    0.0000    
               qcoe:    0.0000    
               qyuk:    0.0000    
               qwid:   0.10000E-01
                rcs:    0.0000    
            lambdas:    1.0000    
-------------------------------------------------------------------------------
L=0  Nkbl=1  erefs: 0.17977+309
L=1  Nkbl=1  erefs: 0.17977+309
L=2  Nkbl=1  erefs: 0.17977+309
===============================================================================
</basis_specs>

atom: Called for H                     (Z =   1)

read_vps: Pseudopotential generation method:
read_vps: ATM3      Troullier-Martins                       
Valence charge for ps generation:    1.00000

xc_check: Exchange-correlation functional:
xc_check: GGA Perdew, Burke & Ernzerhof 1996
V l=0 = -2*Zval/r beyond r=  1.2977
V l=1 = -2*Zval/r beyond r=  1.2815
V l=2 = -2*Zval/r beyond r=  1.2656
All V_l potentials equal beyond r=  1.2977
This should be close to max(r_c) in ps generation
All pots = -2*Zval/r beyond r=  1.2977

VLOCAL1: 99.0% of the norm of Vloc inside     25.776 Ry
VLOCAL1: 99.9% of the norm of Vloc inside     58.745 Ry
atom: Maximum radius for 4*pi*r*r*local-pseudopot. charge    1.52711
atom: Maximum radius for r*vlocal+2*Zval:    1.28155
GHOST: No ghost state for L =  0
GHOST: No ghost state for L =  1
GHOST: No ghost state for L =  2

KBgen: Kleinman-Bylander projectors: 
   l= 0   rc=  1.434438   el= -0.477200   Ekb= -1.957043   kbcos= -0.361614
   l= 1   rc=  1.508111   el=  0.001076   Ekb= -0.424224   kbcos= -0.025441
   l= 2   rc=  1.527112   el=  0.002010   Ekb= -0.378578   kbcos= -0.002010

KBgen: Total number of Kleinman-Bylander projectors:    9
atom: -------------------------------------------------------------------------

atom: SANKEY-TYPE ORBITALS:

SPLIT: Orbitals with angular momentum L= 0

SPLIT: Basis orbitals for state 1s

SPLIT: PAO cut-off radius determined from an
SPLIT: energy shift=  0.020000 Ry

   izeta = 1
                 lambda =    1.000000
                     rc =    4.708991
                 energy =   -0.457754
                kinetic =    0.977134
    potential(screened) =   -1.434888
       potential(ionic) =   -1.963073

POLgen: Perturbative polarization orbital with L=  1

POLgen: Polarization orbital for state 1s

   izeta = 1
                     rc =    4.708991
                 energy =    0.764959
                kinetic =    1.478379
    potential(screened) =   -0.713420
       potential(ionic) =   -1.205754
atom: Total number of Sankey-type orbitals:  4

atm_pop: Valence configuration (for local Pseudopot. screening):
 1s( 1.00)                                                            
Vna: chval, zval:    1.00000   1.00000

Vna:  Cut-off radius for the neutral-atom potential:   4.708991

atom: _________________________________________________________________________

prinput: Basis input ----------------------------------------------------------

PAO.BasisType split     

%block ChemicalSpeciesLabel
    1    8 O                       # Species index, atomic number, species label
    2    6 C                       # Species index, atomic number, species label
    3    1 H                       # Species index, atomic number, species label
%endblock ChemicalSpeciesLabel

%block PAO.Basis                 # Define Basis set
O                     2                    # Species label, number of l-shells
 n=2   0   2                         # n, l, Nzeta 
   3.305      2.510   
   1.000      1.000   
 n=2   1   2 P   1                   # n, l, Nzeta, Polarization, NzetaPol
   3.937      2.542   
   1.000      1.000   
C                     2                    # Species label, number of l-shells
 n=2   0   2                         # n, l, Nzeta 
   4.088      3.347   
   1.000      1.000   
 n=2   1   2 P   1                   # n, l, Nzeta, Polarization, NzetaPol
   4.870      3.475   
   1.000      1.000   
H                     1                    # Species label, number of l-shells
 n=1   0   1 P   1                   # n, l, Nzeta, Polarization, NzetaPol
   4.709   
   1.000   
%endblock PAO.Basis

prinput: ----------------------------------------------------------------------

Dumping basis to NetCDF file O.ion.nc
Dumping basis to NetCDF file C.ion.nc
Dumping basis to NetCDF file H.ion.nc
coor:   Atomic-coordinates input format  =     Cartesian coordinates
coor:                                          (in Angstroms)

siesta: WARNING: XV file not found

siesta: Atomic coordinates (Bohr) and species
siesta:      0.00000   0.00000   0.00000  2        1
siesta:      1.18599   1.18599   1.18599  3        2
siesta:      1.18599  -1.18599  -1.18599  3        3
siesta:     -1.18599   1.18599  -1.18599  3        4
siesta:     -1.18599  -1.18599   1.18599  3        5
siesta:      9.44863   0.00000   0.00000  1        6

siesta: System type = molecule  

initatomlists: Number of atoms, orbitals, and projectors:      6    42    68

coxmol: Writing XMOL coordinates into file CH4.xyz                                                             

siesta: ******************** Simulation parameters ****************************
siesta:
siesta: The following are some of the parameters of the simulation.
siesta: A complete list of the parameters used, including default values,
siesta: can be found in file out.fdf
siesta:
redata: Spin configuration                          = none
redata: Number of spin components                   = 1
redata: Time-Reversal Symmetry                      = T
redata: Spin spiral                                 = F
redata: Long output                                 =   F
redata: Number of Atomic Species                    =        3
redata: Charge density info will appear in .RHO file
redata: Write Mulliken Pop.                         = NO
redata: Matel table size (NRTAB)                    =     1024
redata: Mesh Cutoff                                 =   200.0000 Ry
redata: Net charge of the system                    =     0.0000 |e|
redata: Min. number of SCF Iter                     =        0
redata: Max. number of SCF Iter                     =      150
redata: SCF convergence failure will abort job
redata: SCF mix quantity                            = Hamiltonian
redata: Mix DM or H after convergence               =   F
redata: Recompute H after scf cycle                 =   F
redata: Mix DM in first SCF step                    =   T
redata: Write Pulay info on disk                    =   F
redata: New DM Occupancy tolerance                  = 0.000000000001
redata: No kicks to SCF
redata: DM Mixing Weight for Kicks                  =     0.5000
redata: Require Harris convergence for SCF          =   F
redata: Harris energy tolerance for SCF             =     0.000100 eV
redata: Require DM convergence for SCF              =   T
redata: DM tolerance for SCF                        =     0.000300
redata: Require EDM convergence for SCF             =   F
redata: EDM tolerance for SCF                       =     0.001000 eV
redata: Require H convergence for SCF               =   T
redata: Hamiltonian tolerance for SCF               =     0.001000 eV
redata: Require (free) Energy convergence for SCF   =   F
redata: (free) Energy tolerance for SCF             =     0.000100 eV
redata: Using Saved Data (generic)                  =   F
redata: Use continuation files for DM               =   F
redata: Neglect nonoverlap interactions             =   F
redata: Method of Calculation                       = Diagonalization
redata: Electronic Temperature                      =   290.1109 K
redata: Fix the spin of the system                  =   F
redata: Dynamics option                             = Verlet MD run
redata: Initial MD time step                        =        1
redata:   Final MD time step                        =      100
redata: Length of MD time step                      =     1.0000 fs
redata: Initial Temperature of MD run               =     0.0000 K
redata: Perform a MD quench                         =   F
mix.SCF: Pulay mixing                            = Pulay
mix.SCF:    Variant                              = stable
mix.SCF:    History steps                        = 6
mix.SCF:    Linear mixing weight                 =     0.020000
mix.SCF:    Mixing weight                        =     0.020000
mix.SCF:    SVD condition                        = 0.1000E-07
redata: Save all siesta data in one NC              =   F
redata: ***********************************************************************

%block SCF.Mixers
  Pulay
%endblock SCF.Mixers

%block SCF.Mixer.Pulay
  # Mixing method
  method pulay
  variant stable

  # Mixing options
  weight 0.0200
  weight.linear 0.0200
  history 6
%endblock SCF.Mixer.Pulay

Size of DM history Fstack: 1
Total number of electrons:    14.000000
Total ionic charge:    14.000000

* ProcessorY, Blocksize:    1  24


* Orbital distribution balance (max,min):    42    42

 Kpoints in:            1 . Kpoints trimmed:            1

siesta: k-grid: Number of k-points =     1
siesta: k-grid: Cutoff (effective) =     7.500 Ang
siesta: k-grid: Supercell and displacements
siesta: k-grid:    1   0   0      0.000
siesta: k-grid:    0   1   0      0.000
siesta: k-grid:    0   0   1      0.000

diag: Algorithm                                     = D&C
diag: Parallel over k                               =   F
diag: Use parallel 2D distribution                  =   F
diag: Parallel block-size                           = 24
diag: Parallel distribution                         =     1 x     1
diag: Used triangular part                          = Lower
diag: Absolute tolerance                            =  0.100E-15
diag: Orthogonalization factor                      =  0.100E-05
diag: Memory factor                                 =  1.0000


ts: **************************************************************
ts: Save H and S matrices                           =    F
ts: Save DM and EDM matrices                        =    F
ts: Only save the overlap matrix S                  =    F
ts: **************************************************************

************************ Begin: TS CHECKS AND WARNINGS ************************
************************ End: TS CHECKS AND WARNINGS **************************


                     ====================================
                        Begin MD step =      1
                     ====================================

outcell: Unit cell vectors (Ang):
       15.000000    0.000000    0.000000
        0.000000   15.000000    0.000000
        0.000000    0.000000   15.000000

outcell: Cell vector modules (Ang)   :   15.000000   15.000000   15.000000
outcell: Cell angles (23,13,12) (deg):     90.0000     90.0000     90.0000
outcell: Cell volume (Ang**3)        :   3375.0000
<dSpData1D:S at geom step 1
  <sparsity:sparsity for geom step 1
    nrows_g=42 nrows=42 sparsity=.6451 nnzs=1138, refcount: 7>
  <dData1D:(new from dSpData1D) n=1138, refcount: 1>
refcount: 1>
new_DM -- step:     1
Initializing Density Matrix...
DM filled with atomic data:
<dSpData2D:DM initialized from atoms
  <sparsity:sparsity for geom step 1
    nrows_g=42 nrows=42 sparsity=.6451 nnzs=1138, refcount: 8>
  <dData2D:DM n=1138 m=1, refcount: 1>
refcount: 1>
No. of atoms with KB's overlaping orbs in proc 0. Max # of overlaps:       6      29
New grid distribution:   1
           1       1:   64    1:   64    1:   64

InitMesh: MESH =   128 x   128 x   128 =     2097152
InitMesh: (bp) =    64 x    64 x    64 =      262144
InitMesh: Mesh cutoff (required, used) =   200.000   201.251 Ry
ExtMesh (bp) on 0 =   108 x   108 x   108 =     1259712
PhiOnMesh: Number of (b)points on node 0 =               262144
PhiOnMesh: nlist on node 0 =               183457

stepf: Fermi-Dirac step function

siesta: Program's energy decomposition (eV):
siesta: Ebs     =      -149.974887
siesta: Eions   =       935.229976
siesta: Ena     =       132.849347
siesta: Ekin    =       466.699607
siesta: Enl     =      -117.728207
siesta: Eso     =         0.000000
siesta: Edftu   =         0.000000
siesta: DEna    =       -12.211988
siesta: DUscf   =         2.961818
siesta: DUext   =         0.000000
siesta: Exc     =      -201.540210
siesta: eta*DQ  =         0.000000
siesta: Emadel  =         0.000000
siesta: Emeta   =         0.000000
siesta: Emolmec =         0.000000
siesta: Ekinion =         0.000000
siesta: Eharris =      -670.883180
siesta: Etot    =      -664.199609
siesta: FreeEng =      -664.294743

        iscf     Eharris(eV)        E_KS(eV)     FreeEng(eV)     dDmax    Ef(eV) dHmax(eV)
   scf:    1     -670.883180     -664.199609     -664.294743  1.858919 -6.406549  6.836783
timer: Routine,Calls,Time,% = IterSCF        1       3.154  52.95
   scf:    2     -664.374640     -664.288066     -664.383399  0.034008 -6.434890  6.549700
   scf:    3     -664.990485     -665.037713     -665.126938  0.394421 -7.112291  0.459252
   scf:    4     -665.194042     -665.154342     -665.249685  0.344773 -7.105060  0.369391
   scf:    5     -664.551281     -664.940986     -665.022815  0.540538 -6.963240  0.856434
   scf:    6     -663.757801     -664.855195     -664.932066  1.356626 -7.332964  0.679559
   scf:    7     -664.590083     -664.728031     -664.796658  0.138149 -7.297854  0.702239
   scf:    8     -664.599917     -664.664894     -664.729285  0.062547 -7.312089  0.779269
   scf:    9     -663.347948     -664.850959     -664.924165  1.633753 -7.211418  0.901482
   scf:   10     -665.280102     -665.133524     -665.226811  0.450212 -7.232958  0.303793
   scf:   11     -664.510630     -665.003302     -665.088939  0.778130 -7.209849  0.524947
   scf:   12     -663.714494     -664.850953     -664.924090  1.237767 -7.162012  0.798792
   scf:   13     -665.217371     -665.061575     -665.150569  0.283568 -7.171856  0.382824
   scf:   14     -665.047425     -665.054554     -665.143108  0.012826 -7.171482  0.398582
   scf:   15     -664.953487     -665.006103     -665.091512  0.079937 -7.166333  0.493649
   scf:   16     -665.090196     -665.049812     -665.138066  0.073913 -7.187299  0.442940
   scf:   17     -665.155843     -665.107305     -665.199068  0.118818 -7.201424  0.324310
   scf:   18     -664.860547     -665.110971     -665.202826  0.645579 -7.235188  0.295297
   scf:   19     -665.057176     -665.156968     -665.251567  0.486382 -7.196563  0.138750
   scf:   20     -665.124743     -665.142040     -665.235811  0.063197 -7.177146  0.208044
   scf:   21     -665.144138     -665.143095     -665.236924  0.004346 -7.181951  0.196333
   scf:   22     -665.183419     -665.171857     -665.267249  0.167665 -7.208127  0.062460
   scf:   23     -665.174449     -665.173613     -665.269085  0.038565 -7.212737  0.036889
   scf:   24     -665.173772     -665.173807     -665.269282  0.020090 -7.222200  0.029108
   scf:   25     -665.173763     -665.173795     -665.269271  0.005312 -7.222595  0.025063
   scf:   26     -665.173733     -665.173790     -665.269262  0.009793 -7.226866  0.012496
   scf:   27     -665.173799     -665.173809     -665.269285  0.006549 -7.225904  0.009498
   scf:   28     -665.173812     -665.173811     -665.269287  0.001658 -7.226707  0.008527
   scf:   29     -665.173811     -665.173812     -665.269288  0.000843 -7.227515  0.005419
   scf:   30     -665.173814     -665.173813     -665.269289  0.000154 -7.227787  0.003293
   scf:   31     -665.173816     -665.173816     -665.269292  0.001984 -7.227907  0.001951
   scf:   32     -665.173817     -665.173816     -665.269292  0.000083 -7.227954  0.001960
   scf:   33     -665.173817     -665.173817     -665.269292  0.000312 -7.228369  0.001358
   scf:   34     -665.173817     -665.173817     -665.269292  0.000055 -7.228450  0.001118
   scf:   35     -665.173817     -665.173817     -665.269292  0.000100 -7.228687  0.000902

SCF Convergence by DM+H criterion
max |DM_out - DM_in|         :     0.0000999458
max |H_out - H_in|      (eV) :     0.0009015574
SCF cycle converged after 35 iterations

Using DM_out to compute the final energy and forces
No. of atoms with KB's overlaping orbs in proc 0. Max # of overlaps:       6      29

siesta: E_KS(eV) =             -665.1738

siesta: E_KS - E_eggbox =      -665.1738

siesta: Atomic forces (eV/Ang):
----------------------------------------
   Tot   -0.027952    0.000000    0.000000
----------------------------------------
   Max    0.409904
   Res    0.334710    sqrt( Sum f_i^2 / 3N )
----------------------------------------
   Max    0.409904    constrained

Stress tensor Voigt[x,y,z,yz,xz,xy] (kbar):       -0.47       -0.50       -0.50        0.00       -0.00       -0.00
(Free)E + p*V (eV/cell)     -664.2402
Target enthalpy (eV/cell)     -665.2693

siesta: Stress tensor (static) (eV/Ang**3):
        -0.000295   -0.000000   -0.000000
        -0.000000   -0.000310    0.000000
        -0.000000    0.000000   -0.000310

siesta: Pressure (static):          0.48854062  kBar

siesta: Stress tensor (total) (eV/Ang**3):
        -0.000295   -0.000000   -0.000000
        -0.000000   -0.000310    0.000000
        -0.000000    0.000000   -0.000310

siesta: Pressure (total):          0.48854062  kBar

siesta: Temp_ion =       0.000 K

                     ====================================
                        Begin MD step =      2
                     ====================================

outcell: Unit cell vectors (Ang):
       15.000000    0.000000    0.000000
        0.000000   15.000000    0.000000
        0.000000    0.000000   15.000000

outcell: Cell vector modules (Ang)   :   15.000000   15.000000   15.000000
outcell: Cell angles (23,13,12) (deg):     90.0000     90.0000     90.0000
outcell: Cell volume (Ang**3)        :   3375.0000
<dSpData1D:S at geom step 2
  <sparsity:sparsity for geom step 2
    nrows_g=42 nrows=42 sparsity=.6451 nnzs=1138, refcount: 7>
  <dData1D:(new from dSpData1D) n=1138, refcount: 1>
refcount: 1>
new_DM -- step:     2
Re-using DM from previous geometries...
Number of DMs in history: 1
 DM extrapolation coefficients: 
1   1.00000
New DM after history re-use:
<dSpData2D:SpM extrapolated using coords
  <sparsity:sparsity for geom step 2
    nrows_g=42 nrows=42 sparsity=.6451 nnzs=1138, refcount: 9>
  <dData2D:(temp array for extrapolation) n=1138 m=1, refcount: 1>
refcount: 1>
No. of atoms with KB's overlaping orbs in proc 0. Max # of overlaps:       6      29
New grid distribution:   1
           1       1:   64    1:   64    1:   64

InitMesh: MESH =   128 x   128 x   128 =     2097152
InitMesh: (bp) =    64 x    64 x    64 =      262144
InitMesh: Mesh cutoff (required, used) =   200.000   201.251 Ry
ExtMesh (bp) on 0 =   108 x   108 x   108 =     1259712
PhiOnMesh: Number of (b)points on node 0 =               262144
PhiOnMesh: nlist on node 0 =               183421

        iscf     Eharris(eV)        E_KS(eV)     FreeEng(eV)     dDmax    Ef(eV) dHmax(eV)
   scf:    1     -665.222872     -665.182501     -665.277978  0.007224 -7.189309  0.069082
   scf:    2     -665.169136     -665.178245     -665.273448  0.092080 -7.245250  0.082464
   scf:    3     -665.183949     -665.182245     -665.277694  0.062631 -7.216150  0.041622
   scf:    4     -665.182550     -665.182557     -665.278033  0.021791 -7.225032  0.004180
   scf:    5     -665.182549     -665.182555     -665.278031  0.002357 -7.224230  0.005581
   scf:    6     -665.182547     -665.182557     -665.278031  0.004459 -7.230146  0.006100
   scf:    7     -665.182559     -665.182559     -665.278035  0.002408 -7.228623  0.000076
   scf:    8     -665.182559     -665.182559     -665.278035  0.000059 -7.228576  0.000081

SCF Convergence by DM+H criterion
max |DM_out - DM_in|         :     0.0000589449
max |H_out - H_in|      (eV) :     0.0000812398
SCF cycle converged after 8 iterations

Using DM_out to compute the final energy and forces
No. of atoms with KB's overlaping orbs in proc 0. Max # of overlaps:       6      29

siesta: E_KS(eV) =             -665.1826

siesta: Atomic forces (eV/Ang):
----------------------------------------
   Tot   -0.027918    0.000000    0.000000
----------------------------------------
   Max    0.340074
   Res    0.277720    sqrt( Sum f_i^2 / 3N )
----------------------------------------
   Max    0.340074    constrained

Stress tensor Voigt[x,y,z,yz,xz,xy] (kbar):       -0.39       -0.42       -0.42       -0.00       -0.00       -0.00
(Free)E + p*V (eV/cell)     -664.4203
Target enthalpy (eV/cell)     -665.2780

siesta: Stress tensor (static) (eV/Ang**3):
        -0.000244   -0.000000   -0.000000
        -0.000000   -0.000259   -0.000000
        -0.000000   -0.000000   -0.000259

siesta: Pressure (static):          0.40720283  kBar

siesta: Stress tensor (total) (eV/Ang**3):
        -0.000244   -0.000000   -0.000000
        -0.000000   -0.000259   -0.000000
        -0.000000   -0.000000   -0.000259

siesta: Pressure (total):          0.40720283  kBar

siesta: Temp_ion =      12.379 K

                     ====================================
                        Begin MD step =      3
                     ====================================

outcell: Unit cell vectors (Ang):
       15.000000    0.000000    0.000000
        0.000000   15.000000    0.000000
        0.000000    0.000000   15.000000

outcell: Cell vector modules (Ang)   :   15.000000   15.000000   15.000000
outcell: Cell angles (23,13,12) (deg):     90.0000     90.0000     90.0000
outcell: Cell volume (Ang**3)        :   3375.0000
<dSpData1D:S at geom step 3
  <sparsity:sparsity for geom step 3
    nrows_g=42 nrows=42 sparsity=.6451 nnzs=1138, refcount: 7>
  <dData1D:(new from dSpData1D) n=1138, refcount: 1>
refcount: 1>
new_DM -- step:     3
Re-using DM from previous geometries...
Number of DMs in history: 1
 DM extrapolation coefficients: 
1   1.00000
New DM after history re-use:
<dSpData2D:SpM extrapolated using coords
  <sparsity:sparsity for geom step 3
    nrows_g=42 nrows=42 sparsity=.6451 nnzs=1138, refcount: 9>
  <dData2D:(temp array for extrapolation) n=1138 m=1, refcount: 1>
refcount: 1>
Note: For starting DM, Qtot, Tr[D*S] =         14.00000000         13.98526996
No. of atoms with KB's overlaping orbs in proc 0. Max # of overlaps:       6      29
New grid distribution:   1
           1       1:   64    1:   64    1:   64

InitMesh: MESH =   128 x   128 x   128 =     2097152
InitMesh: (bp) =    64 x    64 x    64 =      262144
InitMesh: Mesh cutoff (required, used) =   200.000   201.251 Ry
ExtMesh (bp) on 0 =   108 x   108 x   108 =     1259712
PhiOnMesh: Number of (b)points on node 0 =               262144
PhiOnMesh: nlist on node 0 =               183337

        iscf     Eharris(eV)        E_KS(eV)     FreeEng(eV)     dDmax    Ef(eV) dHmax(eV)
   scf:    1     -665.303318     -665.197699     -665.293176  0.017500 -7.123003  0.179751
   scf:    2     -665.191782     -665.196002     -665.291358  0.066335 -7.272930  0.125551
   scf:    3     -665.198762     -665.197791     -665.293247  0.037619 -7.213663  0.031654
   scf:    4     -665.197963     -665.198010     -665.293487  0.019518 -7.217394  0.011684
   scf:    5     -665.198028     -665.198021     -665.293497  0.000331 -7.223163  0.006004
   scf:    6     -665.198022     -665.198023     -665.293499  0.002300 -7.225552  0.003239
   scf:    7     -665.198025     -665.198025     -665.293500  0.000834 -7.229033  0.001995
   scf:    8     -665.198020     -665.198025     -665.293501  0.002173 -7.227500  0.002216
   scf:    9     -665.198026     -665.198026     -665.293502  0.001032 -7.228373  0.000065
   scf:   10     -665.198026     -665.198026     -665.293502  0.000001 -7.228375  0.000063

SCF Convergence by DM+H criterion
max |DM_out - DM_in|         :     0.0000007802
max |H_out - H_in|      (eV) :     0.0000633856
SCF cycle converged after 10 iterations

Using DM_out to compute the final energy and forces
No. of atoms with KB's overlaping orbs in proc 0. Max # of overlaps:       6      29

siesta: E_KS(eV) =             -665.1980

siesta: Atomic forces (eV/Ang):
----------------------------------------
   Tot   -0.027904    0.000000    0.000000
----------------------------------------
   Max    0.160184
   Res    0.130931    sqrt( Sum f_i^2 / 3N )
----------------------------------------
   Max    0.160184    constrained

Stress tensor Voigt[x,y,z,yz,xz,xy] (kbar):       -0.18       -0.21       -0.21        0.00        0.00        0.00
(Free)E + p*V (eV/cell)     -664.8786
Target enthalpy (eV/cell)     -665.2935

siesta: Stress tensor (static) (eV/Ang**3):
        -0.000111    0.000000    0.000000
         0.000000   -0.000126    0.000000
         0.000000    0.000000   -0.000126

siesta: Pressure (static):          0.19444992  kBar

siesta: Stress tensor (total) (eV/Ang**3):
        -0.000113    0.000000    0.000000
         0.000000   -0.000128    0.000000
         0.000000    0.000000   -0.000128

siesta: Pressure (total):          0.19696361  kBar

siesta: Temp_ion =      34.401 K

                     ====================================
                        Begin MD step =      4
                     ====================================

outcell: Unit cell vectors (Ang):
       15.000000    0.000000    0.000000
        0.000000   15.000000    0.000000
        0.000000    0.000000   15.000000

outcell: Cell vector modules (Ang)   :   15.000000   15.000000   15.000000
outcell: Cell angles (23,13,12) (deg):     90.0000     90.0000     90.0000
outcell: Cell volume (Ang**3)        :   3375.0000
<dSpData1D:S at geom step 4
  <sparsity:sparsity for geom step 4
    nrows_g=42 nrows=42 sparsity=.6451 nnzs=1138, refcount: 7>
  <dData1D:(new from dSpData1D) n=1138, refcount: 1>
refcount: 1>
new_DM -- step:     4
Re-using DM from previous geometries...
Number of DMs in history: 1
 DM extrapolation coefficients: 
1   1.00000
New DM after history re-use:
<dSpData2D:SpM extrapolated using coords
  <sparsity:sparsity for geom step 4
    nrows_g=42 nrows=42 sparsity=.6451 nnzs=1138, refcount: 9>
  <dData2D:(temp array for extrapolation) n=1138 m=1, refcount: 1>
refcount: 1>
Note: For starting DM, Qtot, Tr[D*S] =         14.00000000         13.98048188
No. of atoms with KB's overlaping orbs in proc 0. Max # of overlaps:       6      29
New grid distribution:   1
           1       1:   64    1:   64    1:   64

InitMesh: MESH =   128 x   128 x   128 =     2097152
InitMesh: (bp) =    64 x    64 x    64 =      262144
InitMesh: Mesh cutoff (required, used) =   200.000   201.251 Ry
ExtMesh (bp) on 0 =   108 x   108 x   108 =     1259712
PhiOnMesh: Number of (b)points on node 0 =               262144
PhiOnMesh: nlist on node 0 =               183165

        iscf     Eharris(eV)        E_KS(eV)     FreeEng(eV)     dDmax    Ef(eV) dHmax(eV)
   scf:    1     -665.334468     -665.201297     -665.296774  0.021835 -7.088384  0.238832
   scf:    2     -665.187470     -665.197231     -665.292443  0.102252 -7.287223  0.174329
   scf:    3     -665.203582     -665.201383     -665.296819  0.059551 -7.206078  0.050907
   scf:    4     -665.201780     -665.201873     -665.297349  0.030048 -7.211965  0.017529
   scf:    5     -665.201881     -665.201883     -665.297360  0.002683 -7.219494  0.011218
   scf:    6     -665.201731     -665.201859     -665.297329  0.013394 -7.230365  0.017145
   scf:    7     -665.201904     -665.201903     -665.297379  0.008946 -7.228338  0.000634
   scf:    8     -665.201903     -665.201903     -665.297379  0.000139 -7.228064  0.000134

SCF Convergence by DM+H criterion
max |DM_out - DM_in|         :     0.0001387840
max |H_out - H_in|      (eV) :     0.0001338412
SCF cycle converged after 8 iterations

Using DM_out to compute the final energy and forces
No. of atoms with KB's overlaping orbs in proc 0. Max # of overlaps:       6      29

siesta: E_KS(eV) =             -665.2019

siesta: Atomic forces (eV/Ang):
----------------------------------------
   Tot   -0.027861    0.000000    0.000000
----------------------------------------
   Max    0.061040
   Res    0.050256    sqrt( Sum f_i^2 / 3N )
----------------------------------------
   Max    0.061040    constrained

Stress tensor Voigt[x,y,z,yz,xz,xy] (kbar):        0.08        0.06        0.06        0.00        0.00        0.00
(Free)E + p*V (eV/cell)     -665.4386
Target enthalpy (eV/cell)     -665.2974

siesta: Stress tensor (static) (eV/Ang**3):
         0.000056    0.000000    0.000000
         0.000000    0.000041    0.000000
         0.000000    0.000000    0.000041

siesta: Pressure (static):         -0.07404941  kBar

siesta: Stress tensor (total) (eV/Ang**3):
         0.000052    0.000000    0.000000
         0.000000    0.000037    0.000000
         0.000000    0.000000    0.000037

siesta: Pressure (total):         -0.06706393  kBar

siesta: Temp_ion =      40.075 K

                     ====================================
                        Begin MD step =      5
                     ====================================

outcell: Unit cell vectors (Ang):
       15.000000    0.000000    0.000000
        0.000000   15.000000    0.000000
        0.000000    0.000000   15.000000

outcell: Cell vector modules (Ang)   :   15.000000   15.000000   15.000000
outcell: Cell angles (23,13,12) (deg):     90.0000     90.0000     90.0000
outcell: Cell volume (Ang**3)        :   3375.0000
<dSpData1D:S at geom step 5
  <sparsity:sparsity for geom step 5
    nrows_g=42 nrows=42 sparsity=.6451 nnzs=1138, refcount: 7>
  <dData1D:(new from dSpData1D) n=1138, refcount: 1>
refcount: 1>
new_DM -- step:     5
Re-using DM from previous geometries...
Number of DMs in history: 1
 DM extrapolation coefficients: 
1   1.00000
New DM after history re-use:
<dSpData2D:SpM extrapolated using coords
  <sparsity:sparsity for geom step 5
    nrows_g=42 nrows=42 sparsity=.6451 nnzs=1138, refcount: 9>
  <dData2D:(temp array for extrapolation) n=1138 m=1, refcount: 1>
refcount: 1>
Note: For starting DM, Qtot, Tr[D*S] =         14.00000000         13.98172701
No. of atoms with KB's overlaping orbs in proc 0. Max # of overlaps:       6      29
New grid distribution:   1
           1       1:   64    1:   64    1:   64

InitMesh: MESH =   128 x   128 x   128 =     2097152
InitMesh: (bp) =    64 x    64 x    64 =      262144
InitMesh: Mesh cutoff (required, used) =   200.000   201.251 Ry
ExtMesh (bp) on 0 =   108 x   108 x   108 =     1259712
PhiOnMesh: Number of (b)points on node 0 =               262144
PhiOnMesh: nlist on node 0 =               183141

        iscf     Eharris(eV)        E_KS(eV)     FreeEng(eV)     dDmax    Ef(eV) dHmax(eV)
   scf:    1     -665.308349     -665.189791     -665.285268  0.019140 -7.097062  0.223402
   scf:    2     -665.178574     -665.186540     -665.281803  0.087478 -7.283256  0.158888
   scf:    3     -665.191733     -665.189935     -665.285379  0.051004 -7.206035  0.046750
   scf:    4     -665.190208     -665.190315     -665.285792  0.025829 -7.211348  0.017998
   scf:    5     -665.190357     -665.190340     -665.285816  0.000780 -7.219896  0.008996
   scf:    6     -665.190343     -665.190343     -665.285819  0.002518 -7.224249  0.003503
   scf:    7     -665.190347     -665.190346     -665.285822  0.000916 -7.228570  0.001950
   scf:    8     -665.190344     -665.190345     -665.285820  0.000478 -7.228883  0.002930
   scf:    9     -665.190347     -665.190347     -665.285823  0.001292 -7.227869  0.000092
   scf:   10     -665.190347     -665.190347     -665.285823  0.000001 -7.227872  0.000090

SCF Convergence by DM+H criterion
max |DM_out - DM_in|         :     0.0000014540
max |H_out - H_in|      (eV) :     0.0000902410
SCF cycle converged after 10 iterations

Using DM_out to compute the final energy and forces
No. of atoms with KB's overlaping orbs in proc 0. Max # of overlaps:       6      29

siesta: E_KS(eV) =             -665.1903

siesta: Atomic forces (eV/Ang):
----------------------------------------
   Tot   -0.027760   -0.000000   -0.000000
----------------------------------------
   Max    0.252604
   Res    0.206343    sqrt( Sum f_i^2 / 3N )
----------------------------------------
   Max    0.252604    constrained

Stress tensor Voigt[x,y,z,yz,xz,xy] (kbar):        0.32        0.30        0.30        0.00        0.00        0.00
(Free)E + p*V (eV/cell)     -665.9296
Target enthalpy (eV/cell)     -665.2858

siesta: Stress tensor (static) (eV/Ang**3):
         0.000206    0.000000    0.000000
         0.000000    0.000191    0.000000
         0.000000    0.000000    0.000191

siesta: Pressure (static):         -0.31375646  kBar

siesta: Stress tensor (total) (eV/Ang**3):
         0.000201    0.000000    0.000000
         0.000000    0.000186    0.000000
         0.000000    0.000000    0.000186

siesta: Pressure (total):         -0.30561878  kBar

siesta: Temp_ion =      23.615 K

                     ====================================
                        Begin MD step =      6
                     ====================================

outcell: Unit cell vectors (Ang):
       15.000000    0.000000    0.000000
        0.000000   15.000000    0.000000
        0.000000    0.000000   15.000000

outcell: Cell vector modules (Ang)   :   15.000000   15.000000   15.000000
outcell: Cell angles (23,13,12) (deg):     90.0000     90.0000     90.0000
outcell: Cell volume (Ang**3)        :   3375.0000
<dSpData1D:S at geom step 6
  <sparsity:sparsity for geom step 6
    nrows_g=42 nrows=42 sparsity=.6451 nnzs=1138, refcount: 7>
  <dData1D:(new from dSpData1D) n=1138, refcount: 1>
refcount: 1>
new_DM -- step:     6
Re-using DM from previous geometries...
Number of DMs in history: 1
 DM extrapolation coefficients: 
1   1.00000
New DM after history re-use:
<dSpData2D:SpM extrapolated using coords
  <sparsity:sparsity for geom step 6
    nrows_g=42 nrows=42 sparsity=.6451 nnzs=1138, refcount: 9>
  <dData2D:(temp array for extrapolation) n=1138 m=1, refcount: 1>
refcount: 1>
No. of atoms with KB's overlaping orbs in proc 0. Max # of overlaps:       6      29
New grid distribution:   1
           1       1:   64    1:   64    1:   64

InitMesh: MESH =   128 x   128 x   128 =     2097152
InitMesh: (bp) =    64 x    64 x    64 =      262144
InitMesh: Mesh cutoff (required, used) =   200.000   201.251 Ry
ExtMesh (bp) on 0 =   108 x   108 x   108 =     1259712
PhiOnMesh: Number of (b)points on node 0 =               262144
PhiOnMesh: nlist on node 0 =               183281

        iscf     Eharris(eV)        E_KS(eV)     FreeEng(eV)     dDmax    Ef(eV) dHmax(eV)
   scf:    1     -665.247293     -665.176422     -665.271898  0.011262 -7.146793  0.138330
   scf:    2     -665.172262     -665.175228     -665.270618  0.055850 -7.262057  0.099050
   scf:    3     -665.177160     -665.176495     -665.271957  0.032826 -7.213701  0.030446
   scf:    4     -665.176578     -665.176628     -665.272104  0.016793 -7.216973  0.011961
   scf:    5     -665.176643     -665.176637     -665.272113  0.000347 -7.223932  0.004897
   scf:    6     -665.176572     -665.176622     -665.272095  0.007816 -7.228788  0.009828
   scf:    7     -665.176642     -665.176642     -665.272117  0.005910 -7.227896  0.000414
   scf:    8     -665.176641     -665.176641     -665.272117  0.000453 -7.227593  0.000455
   scf:    9     -665.176642     -665.176642     -665.272117  0.000244 -7.227770  0.000059

SCF Convergence by DM+H criterion
max |DM_out - DM_in|         :     0.0002441445
max |H_out - H_in|      (eV) :     0.0000593571
SCF cycle converged after 9 iterations

Using DM_out to compute the final energy and forces
No. of atoms with KB's overlaping orbs in proc 0. Max # of overlaps:       6      29

siesta: E_KS(eV) =             -665.1766

siesta: Atomic forces (eV/Ang):
----------------------------------------
   Tot   -0.027614    0.000000    0.000000
----------------------------------------
   Max    0.362575
   Res    0.296098    sqrt( Sum f_i^2 / 3N )
----------------------------------------
   Max    0.362575    constrained

Stress tensor Voigt[x,y,z,yz,xz,xy] (kbar):        0.46        0.44        0.44        0.00        0.00        0.00
(Free)E + p*V (eV/cell)     -666.2122
Target enthalpy (eV/cell)     -665.2721

siesta: Stress tensor (static) (eV/Ang**3):
         0.000292    0.000000    0.000000
         0.000000    0.000276    0.000000
         0.000000    0.000000    0.000276

siesta: Pressure (static):         -0.45106034  kBar

siesta: Stress tensor (total) (eV/Ang**3):
         0.000289    0.000000    0.000000
         0.000000    0.000273    0.000000
         0.000000    0.000000    0.000273

siesta: Pressure (total):         -0.44626518  kBar

siesta: Temp_ion =       3.901 K

                     ====================================
                        Begin MD step =      7
                     ====================================

outcell: Unit cell vectors (Ang):
       15.000000    0.000000    0.000000
        0.000000   15.000000    0.000000
        0.000000    0.000000   15.000000

outcell: Cell vector modules (Ang)   :   15.000000   15.000000   15.000000
outcell: Cell angles (23,13,12) (deg):     90.0000     90.0000     90.0000
outcell: Cell volume (Ang**3)        :   3375.0000
<dSpData1D:S at geom step 7
  <sparsity:sparsity for geom step 7
    nrows_g=42 nrows=42 sparsity=.6451 nnzs=1138, refcount: 7>
  <dData1D:(new from dSpData1D) n=1138, refcount: 1>
refcount: 1>
new_DM -- step:     7
Re-using DM from previous geometries...
Number of DMs in history: 1
 DM extrapolation coefficients: 
1   1.00000
New DM after history re-use:
<dSpData2D:SpM extrapolated using coords
  <sparsity:sparsity for geom step 7
    nrows_g=42 nrows=42 sparsity=.6451 nnzs=1138, refcount: 9>
  <dData2D:(temp array for extrapolation) n=1138 m=1, refcount: 1>
refcount: 1>
No. of atoms with KB's overlaping orbs in proc 0. Max # of overlaps:       6      29
New grid distribution:   1
           1       1:   64    1:   64    1:   64

InitMesh: MESH =   128 x   128 x   128 =     2097152
InitMesh: (bp) =    64 x    64 x    64 =      262144
InitMesh: Mesh cutoff (required, used) =   200.000   201.251 Ry
ExtMesh (bp) on 0 =   108 x   108 x   108 =     1259712
PhiOnMesh: Number of (b)points on node 0 =               262144
PhiOnMesh: nlist on node 0 =               183283

        iscf     Eharris(eV)        E_KS(eV)     FreeEng(eV)     dDmax    Ef(eV) dHmax(eV)
   scf:    1     -665.180665     -665.175436     -665.270912  0.000819 -7.221736  0.010399
   scf:    2     -665.175428     -665.175434     -665.270910  0.001465 -7.230403  0.007152
   scf:    3     -665.175438     -665.175437     -665.270913  0.000747 -7.226898  0.001206
   scf:    4     -665.175437     -665.175437     -665.270913  0.000722 -7.227034  0.000922
   scf:    5     -665.175437     -665.175437     -665.270913  0.000194 -7.227629  0.000179

SCF Convergence by DM+H criterion
max |DM_out - DM_in|         :     0.0001935398
max |H_out - H_in|      (eV) :     0.0001787042
SCF cycle converged after 5 iterations

Using DM_out to compute the final energy and forces
No. of atoms with KB's overlaping orbs in proc 0. Max # of overlaps:       6      29

siesta: E_KS(eV) =             -665.1754

siesta: Atomic forces (eV/Ang):
----------------------------------------
   Tot   -0.027525   -0.000000   -0.000000
----------------------------------------
   Max    0.370419
   Res    0.302499    sqrt( Sum f_i^2 / 3N )
----------------------------------------
   Max    0.370419    constrained

Stress tensor Voigt[x,y,z,yz,xz,xy] (kbar):        0.48        0.45        0.45        0.00       -0.00       -0.00
(Free)E + p*V (eV/cell)     -666.2398
Target enthalpy (eV/cell)     -665.2709

siesta: Stress tensor (static) (eV/Ang**3):
         0.000298   -0.000000   -0.000000
        -0.000000    0.000282    0.000000
        -0.000000    0.000000    0.000282

siesta: Pressure (static):         -0.46073913  kBar

siesta: Stress tensor (total) (eV/Ang**3):
         0.000297   -0.000000   -0.000000
        -0.000000    0.000282    0.000000
        -0.000000    0.000000    0.000282

siesta: Pressure (total):         -0.45994703  kBar

siesta: Temp_ion =       2.162 K

                     ====================================
                        Begin MD step =      8
                     ====================================

outcell: Unit cell vectors (Ang):
       15.000000    0.000000    0.000000
        0.000000   15.000000    0.000000
        0.000000    0.000000   15.000000

outcell: Cell vector modules (Ang)   :   15.000000   15.000000   15.000000
outcell: Cell angles (23,13,12) (deg):     90.0000     90.0000     90.0000
outcell: Cell volume (Ang**3)        :   3375.0000
<dSpData1D:S at geom step 8
  <sparsity:sparsity for geom step 8
    nrows_g=42 nrows=42 sparsity=.6451 nnzs=1138, refcount: 7>
  <dData1D:(new from dSpData1D) n=1138, refcount: 1>
refcount: 1>
new_DM -- step:     8
Re-using DM from previous geometries...
Number of DMs in history: 1
 DM extrapolation coefficients: 
1   1.00000
New DM after history re-use:
<dSpData2D:SpM extrapolated using coords
  <sparsity:sparsity for geom step 8
    nrows_g=42 nrows=42 sparsity=.6451 nnzs=1138, refcount: 9>
  <dData2D:(temp array for extrapolation) n=1138 m=1, refcount: 1>
refcount: 1>
No. of atoms with KB's overlaping orbs in proc 0. Max # of overlaps:       6      29
New grid distribution:   1
           1       1:   64    1:   64    1:   64

InitMesh: MESH =   128 x   128 x   128 =     2097152
InitMesh: (bp) =    64 x    64 x    64 =      262144
InitMesh: Mesh cutoff (required, used) =   200.000   201.251 Ry
ExtMesh (bp) on 0 =   108 x   108 x   108 =     1259712
PhiOnMesh: Number of (b)points on node 0 =               262144
PhiOnMesh: nlist on node 0 =               183174

        iscf     Eharris(eV)        E_KS(eV)     FreeEng(eV)     dDmax    Ef(eV) dHmax(eV)
   scf:    1     -665.125460     -665.187820     -665.283294  0.009785 -7.298507  0.120427
   scf:    2     -665.183564     -665.186548     -665.281973  0.055565 -7.198261  0.089115
   scf:    3     -665.188494     -665.187817     -665.283291  0.032762 -7.240355  0.029411
   scf:    4     -665.187938     -665.187973     -665.283448  0.017227 -7.237264  0.010398
   scf:    5     -665.187936     -665.187968     -665.283445  0.006501 -7.228188  0.006858
   scf:    6     -665.187932     -665.187952     -665.283429  0.002324 -7.227146  0.009768
   scf:    7     -665.187987     -665.187982     -665.283458  0.006898 -7.227937  0.000200
   scf:    8     -665.187983     -665.187983     -665.283458  0.000342 -7.228112  0.000349
   scf:    9     -665.187982     -665.187982     -665.283458  0.000241 -7.227990  0.000051

SCF Convergence by DM+H criterion
max |DM_out - DM_in|         :     0.0002410993
max |H_out - H_in|      (eV) :     0.0000510081
SCF cycle converged after 9 iterations

Using DM_out to compute the final energy and forces
No. of atoms with KB's overlaping orbs in proc 0. Max # of overlaps:       6      29

siesta: E_KS(eV) =             -665.1880

siesta: Atomic forces (eV/Ang):
----------------------------------------
   Tot   -0.027420    0.000000    0.000000
----------------------------------------
   Max    0.274974
   Res    0.224591    sqrt( Sum f_i^2 / 3N )
----------------------------------------
   Max    0.274974    constrained

Stress tensor Voigt[x,y,z,yz,xz,xy] (kbar):        0.36        0.33        0.33        0.00       -0.00       -0.00
(Free)E + p*V (eV/cell)     -666.0018
Target enthalpy (eV/cell)     -665.2835

siesta: Stress tensor (static) (eV/Ang**3):
         0.000223   -0.000000   -0.000000
        -0.000000    0.000208    0.000000
        -0.000000    0.000000    0.000208

siesta: Pressure (static):         -0.34145918  kBar

siesta: Stress tensor (total) (eV/Ang**3):
         0.000223   -0.000000   -0.000000
        -0.000000    0.000208    0.000000
        -0.000000    0.000000    0.000208

siesta: Pressure (total):         -0.34102007  kBar

siesta: Temp_ion =      20.213 K

                     ====================================
                        Begin MD step =      9
                     ====================================

outcell: Unit cell vectors (Ang):
       15.000000    0.000000    0.000000
        0.000000   15.000000    0.000000
        0.000000    0.000000   15.000000

outcell: Cell vector modules (Ang)   :   15.000000   15.000000   15.000000
outcell: Cell angles (23,13,12) (deg):     90.0000     90.0000     90.0000
outcell: Cell volume (Ang**3)        :   3375.0000
<dSpData1D:S at geom step 9
  <sparsity:sparsity for geom step 9
    nrows_g=42 nrows=42 sparsity=.6451 nnzs=1138, refcount: 7>
  <dData1D:(new from dSpData1D) n=1138, refcount: 1>
refcount: 1>
new_DM -- step:     9
Re-using DM from previous geometries...
Number of DMs in history: 1
 DM extrapolation coefficients: 
1   1.00000
New DM after history re-use:
<dSpData2D:SpM extrapolated using coords
  <sparsity:sparsity for geom step 9
    nrows_g=42 nrows=42 sparsity=.6451 nnzs=1138, refcount: 9>
  <dData2D:(temp array for extrapolation) n=1138 m=1, refcount: 1>
refcount: 1>
Note: For starting DM, Qtot, Tr[D*S] =         14.00000000         14.01759688
No. of atoms with KB's overlaping orbs in proc 0. Max # of overlaps:       6      29
New grid distribution:   1
           1       1:   64    1:   64    1:   64

InitMesh: MESH =   128 x   128 x   128 =     2097152
InitMesh: (bp) =    64 x    64 x    64 =      262144
InitMesh: Mesh cutoff (required, used) =   200.000   201.251 Ry
ExtMesh (bp) on 0 =   108 x   108 x   108 =     1259712
PhiOnMesh: Number of (b)points on node 0 =               262144
PhiOnMesh: nlist on node 0 =               183150

        iscf     Eharris(eV)        E_KS(eV)     FreeEng(eV)     dDmax    Ef(eV) dHmax(eV)
   scf:    1     -665.085487     -665.200479     -665.295952  0.018178 -7.353923  0.214791
   scf:    2     -665.186841     -665.196401     -665.291682  0.100156 -7.175174  0.159193
   scf:    3     -665.202604     -665.200436     -665.295896  0.058482 -7.249199  0.051532
   scf:    4     -665.200823     -665.200953     -665.296427  0.031677 -7.243791  0.017565
   scf:    5     -665.200245     -665.200756     -665.296227  0.022669 -7.224485  0.024458
   scf:    6     -665.200922     -665.200844     -665.296319  0.004293 -7.226190  0.019490
   scf:    7     -665.201011     -665.200980     -665.296456  0.013574 -7.227920  0.001650
   scf:    8     -665.200980     -665.200982     -665.296457  0.002405 -7.228338  0.000775
   scf:    9     -665.200981     -665.200982     -665.296458  0.000877 -7.228236  0.000095
   scf:   10     -665.200982     -665.200982     -665.296458  0.000003 -7.228236  0.000095

SCF Convergence by DM+H criterion
max |DM_out - DM_in|         :     0.0000029719
max |H_out - H_in|      (eV) :     0.0000945801
SCF cycle converged after 10 iterations

Using DM_out to compute the final energy and forces
No. of atoms with KB's overlaping orbs in proc 0. Max # of overlaps:       6      29

siesta: E_KS(eV) =             -665.2010

siesta: Atomic forces (eV/Ang):
----------------------------------------
   Tot   -0.027299   -0.000000   -0.000000
----------------------------------------
   Max    0.092798
   Res    0.076032    sqrt( Sum f_i^2 / 3N )
----------------------------------------
   Max    0.092798    constrained

Stress tensor Voigt[x,y,z,yz,xz,xy] (kbar):        0.12        0.10        0.10        0.00       -0.00       -0.00
(Free)E + p*V (eV/cell)     -665.5239
Target enthalpy (eV/cell)     -665.2965

siesta: Stress tensor (static) (eV/Ang**3):
         0.000080   -0.000000   -0.000000
        -0.000000    0.000065    0.000000
        -0.000000    0.000000    0.000065

siesta: Pressure (static):         -0.11208688  kBar

siesta: Stress tensor (total) (eV/Ang**3):
         0.000078   -0.000000   -0.000000
        -0.000000    0.000062    0.000000
        -0.000000    0.000000    0.000062

siesta: Pressure (total):         -0.10798242  kBar

siesta: Temp_ion =      38.702 K

                     ====================================
                        Begin MD step =     10
                     ====================================

outcell: Unit cell vectors (Ang):
       15.000000    0.000000    0.000000
        0.000000   15.000000    0.000000
        0.000000    0.000000   15.000000

outcell: Cell vector modules (Ang)   :   15.000000   15.000000   15.000000
outcell: Cell angles (23,13,12) (deg):     90.0000     90.0000     90.0000
outcell: Cell volume (Ang**3)        :   3375.0000
<dSpData1D:S at geom step 10
  <sparsity:sparsity for geom step 10
    nrows_g=42 nrows=42 sparsity=.6451 nnzs=1138, refcount: 7>
  <dData1D:(new from dSpData1D) n=1138, refcount: 1>
refcount: 1>
new_DM -- step:    10
Re-using DM from previous geometries...
Number of DMs in history: 1
 DM extrapolation coefficients: 
1   1.00000
New DM after history re-use:
<dSpData2D:SpM extrapolated using coords
  <sparsity:sparsity for geom step 10
    nrows_g=42 nrows=42 sparsity=.6451 nnzs=1138, refcount: 9>
  <dData2D:(temp array for extrapolation) n=1138 m=1, refcount: 1>
refcount: 1>
Note: For starting DM, Qtot, Tr[D*S] =         14.00000000         14.01978019
No. of atoms with KB's overlaping orbs in proc 0. Max # of overlaps:       6      29
New grid distribution:   1
           1       1:   64    1:   64    1:   64

InitMesh: MESH =   128 x   128 x   128 =     2097152
InitMesh: (bp) =    64 x    64 x    64 =      262144
InitMesh: Mesh cutoff (required, used) =   200.000   201.251 Ry
ExtMesh (bp) on 0 =   108 x   108 x   108 =     1259712
PhiOnMesh: Number of (b)points on node 0 =               262144
PhiOnMesh: nlist on node 0 =               183398

        iscf     Eharris(eV)        E_KS(eV)     FreeEng(eV)     dDmax    Ef(eV) dHmax(eV)
   scf:    1     -665.063532     -665.199117     -665.294589  0.021786 -7.369779  0.241419
   scf:    2     -665.182174     -665.194036     -665.289263  0.112354 -7.168863  0.178683
   scf:    3     -665.201720     -665.199016     -665.294468  0.064856 -7.250349  0.055384
   scf:    4     -665.199545     -665.199690     -665.295164  0.035668 -7.244411  0.017836
   scf:    5     -665.198422     -665.199315     -665.294780  0.029111 -7.222923  0.031815
   scf:    6     -665.199723     -665.199542     -665.295016  0.008761 -7.226266  0.021935
   scf:    7     -665.199778     -665.199710     -665.295187  0.013320 -7.227653  0.004207
   scf:    8     -665.199719     -665.199721     -665.295197  0.004733 -7.228321  0.001250
   scf:    9     -665.199721     -665.199722     -665.295197  0.000779 -7.228489  0.000107
   scf:   10     -665.199722     -665.199722     -665.295197  0.000005 -7.228490  0.000106

SCF Convergence by DM+H criterion
max |DM_out - DM_in|         :     0.0000045306
max |H_out - H_in|      (eV) :     0.0001062793
SCF cycle converged after 10 iterations

Using DM_out to compute the final energy and forces
No. of atoms with KB's overlaping orbs in proc 0. Max # of overlaps:       6      29

siesta: E_KS(eV) =             -665.1997

siesta: Atomic forces (eV/Ang):
----------------------------------------
   Tot   -0.027161   -0.000000   -0.000000
----------------------------------------
   Max    0.127206
   Res    0.104058    sqrt( Sum f_i^2 / 3N )
----------------------------------------
   Max    0.127206    constrained

Stress tensor Voigt[x,y,z,yz,xz,xy] (kbar):       -0.15       -0.17       -0.17        0.00        0.00        0.00
(Free)E + p*V (eV/cell)     -664.9527
Target enthalpy (eV/cell)     -665.2952

siesta: Stress tensor (static) (eV/Ang**3):
        -0.000086   -0.000000   -0.000000
         0.000000   -0.000102    0.000000
         0.000000    0.000000   -0.000102

siesta: Pressure (static):          0.15475285  kBar

siesta: Stress tensor (total) (eV/Ang**3):
        -0.000091   -0.000000   -0.000000
         0.000000   -0.000107    0.000000
         0.000000    0.000000   -0.000107

siesta: Pressure (total):          0.16261168  kBar

siesta: Temp_ion =      36.725 K

                     ====================================
                        Begin MD step =     11
                     ====================================

outcell: Unit cell vectors (Ang):
       15.000000    0.000000    0.000000
        0.000000   15.000000    0.000000
        0.000000    0.000000   15.000000

outcell: Cell vector modules (Ang)   :   15.000000   15.000000   15.000000
outcell: Cell angles (23,13,12) (deg):     90.0000     90.0000     90.0000
outcell: Cell volume (Ang**3)        :   3375.0000
<dSpData1D:S at geom step 11
  <sparsity:sparsity for geom step 11
    nrows_g=42 nrows=42 sparsity=.6451 nnzs=1138, refcount: 7>
  <dData1D:(new from dSpData1D) n=1138, refcount: 1>
refcount: 1>
new_DM -- step:    11
Re-using DM from previous geometries...
Number of DMs in history: 1
 DM extrapolation coefficients: 
1   1.00000
New DM after history re-use:
<dSpData2D:SpM extrapolated using coords
  <sparsity:sparsity for geom step 11
    nrows_g=42 nrows=42 sparsity=.6451 nnzs=1138, refcount: 9>
  <dData2D:(temp array for extrapolation) n=1138 m=1, refcount: 1>
refcount: 1>
Note: For starting DM, Qtot, Tr[D*S] =         14.00000000         14.01583558
No. of atoms with KB's overlaping orbs in proc 0. Max # of overlaps:       6      29
New grid distribution:   1
           1       1:   64    1:   64    1:   64

InitMesh: MESH =   128 x   128 x   128 =     2097152
InitMesh: (bp) =    64 x    64 x    64 =      262144
InitMesh: Mesh cutoff (required, used) =   200.000   201.251 Ry
ExtMesh (bp) on 0 =   108 x   108 x   108 =     1259712
PhiOnMesh: Number of (b)points on node 0 =               262144
PhiOnMesh: nlist on node 0 =               183398

        iscf     Eharris(eV)        E_KS(eV)     FreeEng(eV)     dDmax    Ef(eV) dHmax(eV)
   scf:    1     -665.071009     -665.184670     -665.280144  0.018572 -7.341823  0.193442
   scf:    2     -665.173148     -665.181186     -665.276496  0.092660 -7.180913  0.144631
   scf:    3     -665.186385     -665.184551     -665.280013  0.053252 -7.245184  0.043728
   scf:    4     -665.184958     -665.185026     -665.280501  0.029020 -7.240259  0.012683
   scf:    5     -665.184572     -665.184893     -665.280367  0.017427 -7.225699  0.020463
   scf:    6     -665.184954     -665.184925     -665.280400  0.001786 -7.226439  0.018365
   scf:    7     -665.185076     -665.185038     -665.280514  0.011542 -7.227974  0.002976
   scf:    8     -665.185036     -665.185042     -665.280517  0.003918 -7.229159  0.001753
   scf:    9     -665.185042     -665.185042     -665.280518  0.001513 -7.228668  0.000074
   scf:   10     -665.185042     -665.185042     -665.280518  0.000004 -7.228669  0.000075

SCF Convergence by DM+H criterion
max |DM_out - DM_in|         :     0.0000035376
max |H_out - H_in|      (eV) :     0.0000753670
SCF cycle converged after 10 iterations

Using DM_out to compute the final energy and forces
No. of atoms with KB's overlaping orbs in proc 0. Max # of overlaps:       6      29

siesta: E_KS(eV) =             -665.1850

siesta: Atomic forces (eV/Ang):
----------------------------------------
   Tot   -0.027006    0.000000    0.000000
----------------------------------------
   Max    0.318057
   Res    0.259754    sqrt( Sum f_i^2 / 3N )
----------------------------------------
   Max    0.318057    constrained

Stress tensor Voigt[x,y,z,yz,xz,xy] (kbar):       -0.37       -0.40       -0.40       -0.00       -0.00       -0.00
(Free)E + p*V (eV/cell)     -664.4613
Target enthalpy (eV/cell)     -665.2805

siesta: Stress tensor (static) (eV/Ang**3):
        -0.000228   -0.000000   -0.000000
        -0.000000   -0.000243   -0.000000
        -0.000000   -0.000000   -0.000243

siesta: Pressure (static):          0.38143662  kBar

siesta: Stress tensor (total) (eV/Ang**3):
        -0.000232   -0.000000   -0.000000
        -0.000000   -0.000248   -0.000000
        -0.000000   -0.000000   -0.000248

siesta: Pressure (total):          0.38889408  kBar

siesta: Temp_ion =      15.787 K

                     ====================================
                        Begin MD step =     12
                     ====================================

outcell: Unit cell vectors (Ang):
       15.000000    0.000000    0.000000
        0.000000   15.000000    0.000000
        0.000000    0.000000   15.000000

outcell: Cell vector modules (Ang)   :   15.000000   15.000000   15.000000
outcell: Cell angles (23,13,12) (deg):     90.0000     90.0000     90.0000
outcell: Cell volume (Ang**3)        :   3375.0000
<dSpData1D:S at geom step 12
  <sparsity:sparsity for geom step 12
    nrows_g=42 nrows=42 sparsity=.6451 nnzs=1138, refcount: 7>
  <dData1D:(new from dSpData1D) n=1138, refcount: 1>
refcount: 1>
new_DM -- step:    12
Re-using DM from previous geometries...
Number of DMs in history: 1
 DM extrapolation coefficients: 
1   1.00000
New DM after history re-use:
<dSpData2D:SpM extrapolated using coords
  <sparsity:sparsity for geom step 12
    nrows_g=42 nrows=42 sparsity=.6451 nnzs=1138, refcount: 9>
  <dData2D:(temp array for extrapolation) n=1138 m=1, refcount: 1>
refcount: 1>
No. of atoms with KB's overlaping orbs in proc 0. Max # of overlaps:       6      29
New grid distribution:   1
           1       1:   64    1:   64    1:   64

InitMesh: MESH =   128 x   128 x   128 =     2097152
InitMesh: (bp) =    64 x    64 x    64 =      262144
InitMesh: Mesh cutoff (required, used) =   200.000   201.251 Ry
ExtMesh (bp) on 0 =   108 x   108 x   108 =     1259712
PhiOnMesh: Number of (b)points on node 0 =               262144
PhiOnMesh: nlist on node 0 =               183494

        iscf     Eharris(eV)        E_KS(eV)     FreeEng(eV)     dDmax    Ef(eV) dHmax(eV)
   scf:    1     -665.121907     -665.174083     -665.269557  0.008628 -7.279163  0.086455
   scf:    2     -665.170921     -665.173105     -665.268543  0.047638 -7.207411  0.067923
   scf:    3     -665.174515     -665.174021     -665.269496  0.027765 -7.236320  0.022045
   scf:    4     -665.174146     -665.174152     -665.269628  0.014561 -7.233570  0.005143
   scf:    5     -665.174133     -665.174147     -665.269624  0.003776 -7.228631  0.005314
   scf:    6     -665.174119     -665.174135     -665.269612  0.002247 -7.227458  0.008319
   scf:    7     -665.174161     -665.174154     -665.269630  0.004854 -7.228415  0.001126
   scf:    8     -665.174155     -665.174155     -665.269631  0.001190 -7.228944  0.000666
   scf:    9     -665.174155     -665.174155     -665.269631  0.000430 -7.228717  0.000029
   scf:   10     -665.174155     -665.174155     -665.269631  0.000001 -7.228717  0.000029

SCF Convergence by DM+H criterion
max |DM_out - DM_in|         :     0.0000005868
max |H_out - H_in|      (eV) :     0.0000287880
SCF cycle converged after 10 iterations

Using DM_out to compute the final energy and forces
No. of atoms with KB's overlaping orbs in proc 0. Max # of overlaps:       6      29

siesta: E_KS(eV) =             -665.1742

siesta: Atomic forces (eV/Ang):
----------------------------------------
   Tot   -0.026837   -0.000000   -0.000000
----------------------------------------
   Max    0.407503
   Res    0.332751    sqrt( Sum f_i^2 / 3N )
----------------------------------------
   Max    0.407503    constrained

Stress tensor Voigt[x,y,z,yz,xz,xy] (kbar):       -0.47       -0.50       -0.50       -0.00        0.00        0.00
(Free)E + p*V (eV/cell)     -664.2400
Target enthalpy (eV/cell)     -665.2696

siesta: Stress tensor (static) (eV/Ang**3):
        -0.000293    0.000000    0.000000
         0.000000   -0.000308   -0.000000
         0.000000   -0.000000   -0.000308

siesta: Pressure (static):          0.48558813  kBar

siesta: Stress tensor (total) (eV/Ang**3):
        -0.000295    0.000000    0.000000
         0.000000   -0.000310   -0.000000
         0.000000   -0.000000   -0.000310

siesta: Pressure (total):          0.48879386  kBar

siesta: Temp_ion =       0.362 K

                     ====================================
                        Begin MD step =     13
                     ====================================

outcell: Unit cell vectors (Ang):
       15.000000    0.000000    0.000000
        0.000000   15.000000    0.000000
        0.000000    0.000000   15.000000

outcell: Cell vector modules (Ang)   :   15.000000   15.000000   15.000000
outcell: Cell angles (23,13,12) (deg):     90.0000     90.0000     90.0000
outcell: Cell volume (Ang**3)        :   3375.0000
<dSpData1D:S at geom step 13
  <sparsity:sparsity for geom step 13
    nrows_g=42 nrows=42 sparsity=.6451 nnzs=1138, refcount: 7>
  <dData1D:(new from dSpData1D) n=1138, refcount: 1>
refcount: 1>
new_DM -- step:    13
Re-using DM from previous geometries...
Number of DMs in history: 1
 DM extrapolation coefficients: 
1   1.00000
New DM after history re-use:
<dSpData2D:SpM extrapolated using coords
  <sparsity:sparsity for geom step 13
    nrows_g=42 nrows=42 sparsity=.6451 nnzs=1138, refcount: 9>
  <dData2D:(temp array for extrapolation) n=1138 m=1, refcount: 1>
refcount: 1>
No. of atoms with KB's overlaping orbs in proc 0. Max # of overlaps:       6      29
New grid distribution:   1
           1       1:   64    1:   64    1:   64

InitMesh: MESH =   128 x   128 x   128 =     2097152
InitMesh: (bp) =    64 x    64 x    64 =      262144
InitMesh: Mesh cutoff (required, used) =   200.000   201.251 Ry
ExtMesh (bp) on 0 =   108 x   108 x   108 =     1259712
PhiOnMesh: Number of (b)points on node 0 =               262144
PhiOnMesh: nlist on node 0 =               183458

        iscf     Eharris(eV)        E_KS(eV)     FreeEng(eV)     dDmax    Ef(eV) dHmax(eV)
   scf:    1     -665.208734     -665.180397     -665.275873  0.004714 -7.201309  0.046368
   scf:    2     -665.180294     -665.180378     -665.275849  0.010187 -7.240140  0.028776
   scf:    3     -665.180436     -665.180415     -665.275889  0.005364 -7.225450  0.004789
   scf:    4     -665.180414     -665.180417     -665.275893  0.003020 -7.226040  0.002872
   scf:    5     -665.180419     -665.180418     -665.275894  0.000587 -7.227763  0.000810
   scf:    6     -665.180405     -665.180414     -665.275889  0.002755 -7.227884  0.003630
   scf:    7     -665.180418     -665.180418     -665.275894  0.002715 -7.228592  0.000214
   scf:    8     -665.180418     -665.180418     -665.275894  0.000157 -7.228613  0.000015

SCF Convergence by DM+H criterion
max |DM_out - DM_in|         :     0.0001569375
max |H_out - H_in|      (eV) :     0.0000154083
SCF cycle converged after 8 iterations

Using DM_out to compute the final energy and forces
No. of atoms with KB's overlaping orbs in proc 0. Max # of overlaps:       6      29

siesta: E_KS(eV) =             -665.1804

siesta: Atomic forces (eV/Ang):
----------------------------------------
   Tot   -0.026672    0.000000    0.000000
----------------------------------------
   Max    0.358508
   Res    0.292745    sqrt( Sum f_i^2 / 3N )
----------------------------------------
   Max    0.358508    constrained

Stress tensor Voigt[x,y,z,yz,xz,xy] (kbar):       -0.41       -0.44       -0.44       -0.00        0.00        0.00
(Free)E + p*V (eV/cell)     -664.3734
Target enthalpy (eV/cell)     -665.2759

siesta: Stress tensor (static) (eV/Ang**3):
[...]
(Free)E + p*V (eV/cell)     -664.2549
Target enthalpy (eV/cell)     -665.2703

siesta: Stress tensor (static) (eV/Ang**3):
        -0.000286    0.000000    0.000000
         0.000000   -0.000307   -0.000000
         0.000000   -0.000000   -0.000307

siesta: Pressure (static):          0.48040542  kBar

siesta: Stress tensor (total) (eV/Ang**3):
        -0.000288    0.000000    0.000000
         0.000000   -0.000307   -0.000000
         0.000000   -0.000000   -0.000307

siesta: Pressure (total):          0.48203434  kBar

siesta: Temp_ion =       1.221 K

                     ====================================
                        Begin MD step =     58
                     ====================================

outcell: Unit cell vectors (Ang):
       15.000000    0.000000    0.000000
        0.000000   15.000000    0.000000
        0.000000    0.000000   15.000000

outcell: Cell vector modules (Ang)   :   15.000000   15.000000   15.000000
outcell: Cell angles (23,13,12) (deg):     90.0000     90.0000     90.0000
outcell: Cell volume (Ang**3)        :   3375.0000
<dSpData1D:S at geom step 58
  <sparsity:sparsity for geom step 58
    nrows_g=42 nrows=42 sparsity=.6451 nnzs=1138, refcount: 7>
  <dData1D:(new from dSpData1D) n=1138, refcount: 1>
refcount: 1>
new_DM -- step:    58
Re-using DM from previous geometries...
Number of DMs in history: 1
 DM extrapolation coefficients: 
1   1.00000
New DM after history re-use:
<dSpData2D:SpM extrapolated using coords
  <sparsity:sparsity for geom step 58
    nrows_g=42 nrows=42 sparsity=.6451 nnzs=1138, refcount: 9>
  <dData2D:(temp array for extrapolation) n=1138 m=1, refcount: 1>
refcount: 1>
No. of atoms with KB's overlaping orbs in proc 0. Max # of overlaps:       6      29
New grid distribution:   1
           1       1:   64    1:   64    1:   64

InitMesh: MESH =   128 x   128 x   128 =     2097152
InitMesh: (bp) =    64 x    64 x    64 =      262144
InitMesh: Mesh cutoff (required, used) =   200.000   201.251 Ry
ExtMesh (bp) on 0 =   108 x   108 x   108 =     1259712
PhiOnMesh: Number of (b)points on node 0 =               262144
PhiOnMesh: nlist on node 0 =               183487

        iscf     Eharris(eV)        E_KS(eV)     FreeEng(eV)     dDmax    Ef(eV) dHmax(eV)
   scf:    1     -665.244712     -665.186620     -665.282095  0.009660 -7.171870  0.096624
   scf:    2     -665.183111     -665.185555     -665.280946  0.050983 -7.252091  0.075263
   scf:    3     -665.187116     -665.186580     -665.282040  0.029851 -7.219688  0.023593
   scf:    4     -665.186692     -665.186709     -665.282185  0.015070 -7.222733  0.005826
   scf:    5     -665.186710     -665.186711     -665.282186  0.000994 -7.225206  0.003796
   scf:    6     -665.186674     -665.186703     -665.282175  0.005990 -7.229994  0.008666
   scf:    7     -665.186712     -665.186713     -665.282188  0.004676 -7.228343  0.000264
   scf:    8     -665.186713     -665.186713     -665.282188  0.000281 -7.228135  0.000317

SCF Convergence by DM+H criterion
max |DM_out - DM_in|         :     0.0002809072
max |H_out - H_in|      (eV) :     0.0003174510
SCF cycle converged after 8 iterations

Using DM_out to compute the final energy and forces
No. of atoms with KB's overlaping orbs in proc 0. Max # of overlaps:       6      29

siesta: E_KS(eV) =             -665.1867

siesta: Atomic forces (eV/Ang):
----------------------------------------
   Tot    0.004629   -0.000000   -0.000000
----------------------------------------
   Max    0.304821
   Res    0.248705    sqrt( Sum f_i^2 / 3N )
----------------------------------------
   Max    0.304821    constrained

Stress tensor Voigt[x,y,z,yz,xz,xy] (kbar):       -0.34       -0.37       -0.37       -0.00        0.00       -0.00
(Free)E + p*V (eV/cell)     -664.5166
Target enthalpy (eV/cell)     -665.2822

siesta: Stress tensor (static) (eV/Ang**3):
        -0.000213   -0.000000    0.000000
        -0.000000   -0.000233   -0.000000
         0.000000   -0.000000   -0.000233

siesta: Pressure (static):          0.36319560  kBar

siesta: Stress tensor (total) (eV/Ang**3):
        -0.000214   -0.000000    0.000000
        -0.000000   -0.000233   -0.000000
         0.000000   -0.000000   -0.000233

siesta: Pressure (total):          0.36344352  kBar

siesta: Temp_ion =      18.114 K

                     ====================================
                        Begin MD step =     59
                     ====================================

outcell: Unit cell vectors (Ang):
       15.000000    0.000000    0.000000
        0.000000   15.000000    0.000000
        0.000000    0.000000   15.000000

outcell: Cell vector modules (Ang)   :   15.000000   15.000000   15.000000
outcell: Cell angles (23,13,12) (deg):     90.0000     90.0000     90.0000
outcell: Cell volume (Ang**3)        :   3375.0000
<dSpData1D:S at geom step 59
  <sparsity:sparsity for geom step 59
    nrows_g=42 nrows=42 sparsity=.6451 nnzs=1138, refcount: 7>
  <dData1D:(new from dSpData1D) n=1138, refcount: 1>
refcount: 1>
new_DM -- step:    59
Re-using DM from previous geometries...
Number of DMs in history: 1
 DM extrapolation coefficients: 
1   1.00000
New DM after history re-use:
<dSpData2D:SpM extrapolated using coords
  <sparsity:sparsity for geom step 59
    nrows_g=42 nrows=42 sparsity=.6451 nnzs=1138, refcount: 9>
  <dData2D:(temp array for extrapolation) n=1138 m=1, refcount: 1>
refcount: 1>
Note: For starting DM, Qtot, Tr[D*S] =         14.00000000         13.98369475
No. of atoms with KB's overlaping orbs in proc 0. Max # of overlaps:       6      29
New grid distribution:   1
           1       1:   64    1:   64    1:   64

InitMesh: MESH =   128 x   128 x   128 =     2097152
InitMesh: (bp) =    64 x    64 x    64 =      262144
InitMesh: Mesh cutoff (required, used) =   200.000   201.251 Ry
ExtMesh (bp) on 0 =   108 x   108 x   108 =     1259712
PhiOnMesh: Number of (b)points on node 0 =               262144
PhiOnMesh: nlist on node 0 =               183341

        iscf     Eharris(eV)        E_KS(eV)     FreeEng(eV)     dDmax    Ef(eV) dHmax(eV)
   scf:    1     -665.316048     -665.200371     -665.295846  0.019128 -7.111484  0.198063
   scf:    2     -665.197870     -665.199815     -665.295239  0.044157 -7.277321  0.123530
   scf:    3     -665.201167     -665.200672     -665.296137  0.023618 -7.212883  0.022932
   scf:    4     -665.200685     -665.200746     -665.296222  0.013115 -7.215775  0.013687
   scf:    5     -665.200777     -665.200766     -665.296241  0.002388 -7.224374  0.003710
   scf:    6     -665.200767     -665.200767     -665.296241  0.000493 -7.224425  0.003379
   scf:    7     -665.200765     -665.200768     -665.296242  0.001422 -7.228000  0.001814
   scf:    8     -665.200768     -665.200769     -665.296244  0.001695 -7.227959  0.000135
   scf:    9     -665.200769     -665.200769     -665.296244  0.000038 -7.228000  0.000073

SCF Convergence by DM+H criterion
max |DM_out - DM_in|         :     0.0000380798
max |H_out - H_in|      (eV) :     0.0000725880
SCF cycle converged after 9 iterations

Using DM_out to compute the final energy and forces
No. of atoms with KB's overlaping orbs in proc 0. Max # of overlaps:       6      29

siesta: E_KS(eV) =             -665.2008

siesta: Atomic forces (eV/Ang):
----------------------------------------
   Tot    0.004932    0.000000    0.000000
----------------------------------------
   Max    0.108556
   Res    0.088515    sqrt( Sum f_i^2 / 3N )
----------------------------------------
   Max    0.108556    constrained

Stress tensor Voigt[x,y,z,yz,xz,xy] (kbar):       -0.11       -0.14       -0.14        0.00       -0.00       -0.00
(Free)E + p*V (eV/cell)     -665.0164
Target enthalpy (eV/cell)     -665.2962

siesta: Stress tensor (static) (eV/Ang**3):
        -0.000067   -0.000000   -0.000000
        -0.000000   -0.000087    0.000000
        -0.000000    0.000000   -0.000087

siesta: Pressure (static):          0.12919182  kBar

siesta: Stress tensor (total) (eV/Ang**3):
        -0.000070   -0.000000   -0.000000
        -0.000000   -0.000090    0.000000
        -0.000000    0.000000   -0.000090

siesta: Pressure (total):          0.13287010  kBar

siesta: Temp_ion =      38.151 K

                     ====================================
                        Begin MD step =     60
                     ====================================

outcell: Unit cell vectors (Ang):
       15.000000    0.000000    0.000000
        0.000000   15.000000    0.000000
        0.000000    0.000000   15.000000

outcell: Cell vector modules (Ang)   :   15.000000   15.000000   15.000000
outcell: Cell angles (23,13,12) (deg):     90.0000     90.0000     90.0000
outcell: Cell volume (Ang**3)        :   3375.0000
<dSpData1D:S at geom step 60
  <sparsity:sparsity for geom step 60
    nrows_g=42 nrows=42 sparsity=.6451 nnzs=1138, refcount: 7>
  <dData1D:(new from dSpData1D) n=1138, refcount: 1>
refcount: 1>
new_DM -- step:    60
Re-using DM from previous geometries...
Number of DMs in history: 1
 DM extrapolation coefficients: 
1   1.00000
New DM after history re-use:
<dSpData2D:SpM extrapolated using coords
  <sparsity:sparsity for geom step 60
    nrows_g=42 nrows=42 sparsity=.6451 nnzs=1138, refcount: 9>
  <dData2D:(temp array for extrapolation) n=1138 m=1, refcount: 1>
refcount: 1>
Note: For starting DM, Qtot, Tr[D*S] =         14.00000000         13.98026829
No. of atoms with KB's overlaping orbs in proc 0. Max # of overlaps:       6      29
New grid distribution:   1
           1       1:   64    1:   64    1:   64

InitMesh: MESH =   128 x   128 x   128 =     2097152
InitMesh: (bp) =    64 x    64 x    64 =      262144
InitMesh: Mesh cutoff (required, used) =   200.000   201.251 Ry
ExtMesh (bp) on 0 =   108 x   108 x   108 =     1259712
PhiOnMesh: Number of (b)points on node 0 =               262144
PhiOnMesh: nlist on node 0 =               183073

        iscf     Eharris(eV)        E_KS(eV)     FreeEng(eV)     dDmax    Ef(eV) dHmax(eV)
   scf:    1     -665.332925     -665.199967     -665.295444  0.021734 -7.086584  0.241785
   scf:    2     -665.180907     -665.194239     -665.289338  0.118266 -7.287496  0.184361
   scf:    3     -665.202848     -665.199903     -665.295322  0.070027 -7.204006  0.058802
   scf:    4     -665.200466     -665.200568     -665.296044  0.034435 -7.211054  0.018290
   scf:    5     -665.200564     -665.200573     -665.296050  0.003684 -7.217364  0.013426
   scf:    6     -665.200450     -665.200564     -665.296033  0.013405 -7.230652  0.017840
   scf:    7     -665.200600     -665.200599     -665.296074  0.008161 -7.227998  0.000715
   scf:    8     -665.200599     -665.200599     -665.296074  0.000158 -7.227701  0.000127

SCF Convergence by DM+H criterion
max |DM_out - DM_in|         :     0.0001575902
max |H_out - H_in|      (eV) :     0.0001271424
SCF cycle converged after 8 iterations

Using DM_out to compute the final energy and forces
No. of atoms with KB's overlaping orbs in proc 0. Max # of overlaps:       6      29

siesta: E_KS(eV) =             -665.2006

siesta: Atomic forces (eV/Ang):
----------------------------------------
   Tot    0.006471    0.000000    0.000000
----------------------------------------
   Max    0.109756
   Res    0.089545    sqrt( Sum f_i^2 / 3N )
----------------------------------------
   Max    0.109756    constrained

Stress tensor Voigt[x,y,z,yz,xz,xy] (kbar):        0.15        0.12        0.12       -0.00        0.00        0.00
(Free)E + p*V (eV/cell)     -665.5633
Target enthalpy (eV/cell)     -665.2961

siesta: Stress tensor (static) (eV/Ang**3):
         0.000097    0.000000    0.000000
         0.000000    0.000077    0.000000
         0.000000    0.000000    0.000077

siesta: Pressure (static):         -0.13459665  kBar

siesta: Stress tensor (total) (eV/Ang**3):
         0.000092    0.000000    0.000000
         0.000000    0.000073   -0.000000
         0.000000   -0.000000    0.000073

siesta: Pressure (total):         -0.12684974  kBar

siesta: Temp_ion =      38.073 K

                     ====================================
                        Begin MD step =     61
                     ====================================

outcell: Unit cell vectors (Ang):
       15.000000    0.000000    0.000000
        0.000000   15.000000    0.000000
        0.000000    0.000000   15.000000

outcell: Cell vector modules (Ang)   :   15.000000   15.000000   15.000000
outcell: Cell angles (23,13,12) (deg):     90.0000     90.0000     90.0000
outcell: Cell volume (Ang**3)        :   3375.0000
<dSpData1D:S at geom step 61
  <sparsity:sparsity for geom step 61
    nrows_g=42 nrows=42 sparsity=.6451 nnzs=1138, refcount: 7>
  <dData1D:(new from dSpData1D) n=1138, refcount: 1>
refcount: 1>
new_DM -- step:    61
Re-using DM from previous geometries...
Number of DMs in history: 1
 DM extrapolation coefficients: 
1   1.00000
New DM after history re-use:
<dSpData2D:SpM extrapolated using coords
  <sparsity:sparsity for geom step 61
    nrows_g=42 nrows=42 sparsity=.6451 nnzs=1138, refcount: 9>
  <dData2D:(temp array for extrapolation) n=1138 m=1, refcount: 1>
refcount: 1>
Note: For starting DM, Qtot, Tr[D*S] =         14.00000000         13.98292429
No. of atoms with KB's overlaping orbs in proc 0. Max # of overlaps:       6      29
New grid distribution:   1
           1       1:   64    1:   64    1:   64

InitMesh: MESH =   128 x   128 x   128 =     2097152
InitMesh: (bp) =    64 x    64 x    64 =      262144
InitMesh: Mesh cutoff (required, used) =   200.000   201.251 Ry
ExtMesh (bp) on 0 =   108 x   108 x   108 =     1259712
PhiOnMesh: Number of (b)points on node 0 =               262144
PhiOnMesh: nlist on node 0 =               183231

        iscf     Eharris(eV)        E_KS(eV)     FreeEng(eV)     dDmax    Ef(eV) dHmax(eV)
   scf:    1     -665.296185     -665.186500     -665.281976  0.017634 -7.105387  0.209159
   scf:    2     -665.172446     -665.182302     -665.277497  0.099196 -7.279271  0.157819
   scf:    3     -665.188663     -665.186496     -665.281929  0.059061 -7.205845  0.051621
   scf:    4     -665.186870     -665.186967     -665.282443  0.028956 -7.211813  0.017084
   scf:    5     -665.186987     -665.186981     -665.282457  0.001444 -7.218859  0.010674
   scf:    6     -665.186988     -665.186991     -665.282466  0.004857 -7.224802  0.004512
   scf:    7     -665.186994     -665.186994     -665.282468  0.001083 -7.227423  0.001281
   scf:    8     -665.186994     -665.186994     -665.282469  0.000777 -7.226962  0.000812
   scf:    9     -665.186995     -665.186995     -665.282470  0.000426 -7.227529  0.000086
   scf:   10     -665.186995     -665.186995     -665.282470  0.000001 -7.227530  0.000085

SCF Convergence by DM+H criterion
max |DM_out - DM_in|         :     0.0000012710
max |H_out - H_in|      (eV) :     0.0000852631
SCF cycle converged after 10 iterations

Using DM_out to compute the final energy and forces
No. of atoms with KB's overlaping orbs in proc 0. Max # of overlaps:       6      29

siesta: E_KS(eV) =             -665.1870

siesta: Atomic forces (eV/Ang):
----------------------------------------
   Tot    0.007665    0.000000    0.000000
----------------------------------------
   Max    0.286104
   Res    0.233528    sqrt( Sum f_i^2 / 3N )
----------------------------------------
   Max    0.286104    constrained

Stress tensor Voigt[x,y,z,yz,xz,xy] (kbar):        0.37        0.34        0.34        0.00       -0.00       -0.00
(Free)E + p*V (eV/cell)     -666.0184
Target enthalpy (eV/cell)     -665.2825

siesta: Stress tensor (static) (eV/Ang**3):
         0.000236   -0.000000   -0.000000
        -0.000000    0.000216    0.000000
        -0.000000    0.000000    0.000216

siesta: Pressure (static):         -0.35711072  kBar

siesta: Stress tensor (total) (eV/Ang**3):
         0.000231   -0.000000   -0.000000
        -0.000000    0.000211    0.000000
        -0.000000    0.000000    0.000211

siesta: Pressure (total):         -0.34937955  kBar

siesta: Temp_ion =      18.739 K

                     ====================================
                        Begin MD step =     62
                     ====================================

outcell: Unit cell vectors (Ang):
       15.000000    0.000000    0.000000
        0.000000   15.000000    0.000000
        0.000000    0.000000   15.000000

outcell: Cell vector modules (Ang)   :   15.000000   15.000000   15.000000
outcell: Cell angles (23,13,12) (deg):     90.0000     90.0000     90.0000
outcell: Cell volume (Ang**3)        :   3375.0000
<dSpData1D:S at geom step 62
  <sparsity:sparsity for geom step 62
    nrows_g=42 nrows=42 sparsity=.6451 nnzs=1138, refcount: 7>
  <dData1D:(new from dSpData1D) n=1138, refcount: 1>
refcount: 1>
new_DM -- step:    62
Re-using DM from previous geometries...
Number of DMs in history: 1
 DM extrapolation coefficients: 
1   1.00000
New DM after history re-use:
<dSpData2D:SpM extrapolated using coords
  <sparsity:sparsity for geom step 62
    nrows_g=42 nrows=42 sparsity=.6451 nnzs=1138, refcount: 9>
  <dData2D:(temp array for extrapolation) n=1138 m=1, refcount: 1>
refcount: 1>
No. of atoms with KB's overlaping orbs in proc 0. Max # of overlaps:       6      29
New grid distribution:   1
           1       1:   64    1:   64    1:   64

InitMesh: MESH =   128 x   128 x   128 =     2097152
InitMesh: (bp) =    64 x    64 x    64 =      262144
InitMesh: Mesh cutoff (required, used) =   200.000   201.251 Ry
ExtMesh (bp) on 0 =   108 x   108 x   108 =     1259712
PhiOnMesh: Number of (b)points on node 0 =               262144
PhiOnMesh: nlist on node 0 =               183323

        iscf     Eharris(eV)        E_KS(eV)     FreeEng(eV)     dDmax    Ef(eV) dHmax(eV)
   scf:    1     -665.231628     -665.175100     -665.270576  0.008957 -7.162623  0.111233
   scf:    2     -665.170052     -665.173576     -665.268938  0.060078 -7.254931  0.087464
   scf:    3     -665.175831     -665.175074     -665.270530  0.036330 -7.215168  0.031180
   scf:    4     -665.175200     -665.175236     -665.270712  0.017545 -7.218712  0.009451
   scf:    5     -665.175240     -665.175240     -665.270716  0.000886 -7.223571  0.005093
   scf:    6     -665.175203     -665.175234     -665.270706  0.006702 -7.228950  0.008845
   scf:    7     -665.175244     -665.175245     -665.270720  0.004535 -7.227608  0.000444
   scf:    8     -665.175244     -665.175245     -665.270720  0.000391 -7.227312  0.000381
   scf:    9     -665.175245     -665.175245     -665.270720  0.000196 -7.227466  0.000048

SCF Convergence by DM+H criterion
max |DM_out - DM_in|         :     0.0001959651
max |H_out - H_in|      (eV) :     0.0000479171
SCF cycle converged after 9 iterations

Using DM_out to compute the final energy and forces
No. of atoms with KB's overlaping orbs in proc 0. Max # of overlaps:       6      29

siesta: E_KS(eV) =             -665.1752

siesta: Atomic forces (eV/Ang):
----------------------------------------
   Tot    0.008648    0.000000    0.000000
----------------------------------------
   Max    0.373541
   Res    0.304889    sqrt( Sum f_i^2 / 3N )
----------------------------------------
   Max    0.373541    constrained

Stress tensor Voigt[x,y,z,yz,xz,xy] (kbar):        0.48        0.45        0.45        0.00       -0.00       -0.00
(Free)E + p*V (eV/cell)     -666.2456
Target enthalpy (eV/cell)     -665.2707

siesta: Stress tensor (static) (eV/Ang**3):
         0.000304   -0.000000   -0.000000
        -0.000000    0.000285    0.000000
        -0.000000    0.000000    0.000285

siesta: Pressure (static):         -0.46660969  kBar

siesta: Stress tensor (total) (eV/Ang**3):
         0.000302   -0.000000   -0.000000
        -0.000000    0.000282    0.000000
        -0.000000    0.000000    0.000282

siesta: Pressure (total):         -0.46280459  kBar

siesta: Temp_ion =       1.834 K
